LAMMPS data file via write_data, version 1 Sep 2017, timestep = 500

6480 atoms
71 atom types
7840 bonds
807 bond types
13580 angles
4248 angle types
21440 dihedrals
641 dihedral types
1660 impropers
38 improper types

-3.3167644821148819e+01 3.3167644821148819e+01 xlo xhi
-2.2369095501597169e+01 2.2369095501597169e+01 ylo yhi
-1.3855157877131825e+01 1.3855157877131825e+01 zlo zhi

Masses

1 12.01
2 12.01
3 12.01
4 12.01
5 12.01
6 12.01
7 12.01
8 12.01
9 12.01
10 12.01
11 12.01
12 12.01
13 12.01
14 12.01
15 12.01
16 12.01
17 12.01
18 12.01
19 1.008
20 1.008
21 1.008
22 1.008
23 1.008
24 1.008
25 1.008
26 1.008
27 1.008
28 1.008
29 1.008
30 1.008
31 1.008
32 19
33 35.45
34 79.9
35 126.9
36 14.01
37 14.01
38 14.01
39 14.01
40 14.01
41 14.01
42 14.01
43 14.01
44 14.01
45 14.01
46 14.01
47 14.01
48 14.01
49 16
50 16
51 16
52 16
53 30.97
54 30.97
55 30.97
56 30.97
57 30.97
58 30.97
59 30.97
60 30.97
61 30.97
62 30.97
63 30.97
64 32.06
65 32.06
66 32.06
67 32.06
68 32.06
69 32.06
70 32.06
71 32.06

Atoms # full

3656 12 24 1.4468100000000000e-01 -2.6040378050793397e+01 -1.3638403556893161e+01 -9.4819159238762296e+00 1 0 0
3636 12 49 -4.7225200000000001e-01 -2.8436281413512251e+01 -1.2967110632591524e+01 -1.0097103979639076e+01 1 0 0
1390 5 24 1.4093000000000000e-01 -3.0703175014582285e+01 -1.7883996434466042e+01 -9.2705341479974628e+00 1 0 0
3635 12 1 5.9617600000000004e-01 -2.7892164553153247e+01 -1.2819865448829036e+01 -1.1188581234348840e+01 1 0 0
3346 11 44 -5.9300299999999995e-01 -2.7762579815709280e+01 -2.0128897924580638e+01 -1.0403558350560520e+01 0 1 1
3638 12 5 -2.0365000000000000e-01 -2.6460993975858017e+01 -1.3042436732622923e+01 -1.1518175496615976e+01 1 0 0
1385 5 49 -4.6798699999999999e-01 -2.8592490324141171e+01 -1.7169271864749504e+01 -1.0480424575367952e+01 1 0 0
3345 11 8 4.0842800000000001e-01 -2.7453032655121294e+01 -1.9888700796288941e+01 -1.1659583350751133e+01 0 1 1
1377 5 5 -2.1836000000000000e-01 -3.0724073857177917e+01 -1.6546776222122425e+01 -1.0999572824419117e+01 1 0 0
1380 5 1 5.8926199999999995e-01 -2.9288474713761399e+01 -1.6589600408544531e+01 -1.1205441556227315e+01 1 0 0
3307 11 5 5.4343300000000005e-01 -2.9135474597321629e+01 -2.0170377483131812e+01 -1.0339996913305573e+01 0 1 1
3305 11 5 -2.2319000000000000e-01 -2.9651571667679953e+01 -2.0108766460604148e+01 -1.1622654773769300e+01 0 1 1
3309 11 5 -5.5678799999999995e-01 -2.9865303125982578e+01 -2.0398636043915428e+01 -9.2343264447473796e+00 0 1 1
1373 5 5 -4.7376000000000001e-02 -3.1313584370829904e+01 -1.7217075955265564e+01 -9.8986907391394148e+00 1 0 0
1378 5 5 1.4591100000000001e-01 -3.1520370986406199e+01 -1.5796908336569745e+01 -1.1830476087904977e+01 1 0 0
3331 11 24 2.4798999999999999e-01 -2.9465494947102240e+01 -2.0347636831550510e+01 -8.2270182150377646e+00 0 1 1
1323 5 24 1.9238000000000000e-01 -2.6259496791824414e+01 -1.6792282900781764e+01 -1.1553455553055329e+01 1 0 0
3306 11 5 -1.2498200000000000e-01 -3.0923527217874277e+01 -2.0671621677866607e+01 -1.1921170056657299e+01 0 1 1
4339 14 49 -4.6647699999999997e-01 -2.6238388139416816e+01 -1.9295572718477118e+01 -7.2636775521188737e+00 0 0 0
3349 11 5 -1.8042900000000001e-01 -2.6187807525451959e+01 -1.9884425487108707e+01 -1.2285450278258091e+01 0 1 1
3310 11 5 5.0674100000000000e-01 -3.1183578036638377e+01 -2.0917733592671865e+01 -9.5073570464311938e+00 0 1 1
3650 12 24 1.9711000000000001e-01 -3.1101551475821804e+01 -1.2685267009077076e+01 -1.0639891171091605e+01 1 0 0
1386 5 36 -8.6329000000000003e-02 -2.8902868408477882e+01 -1.6170884352055825e+01 -1.2349546522279315e+01 1 0 0
3308 11 5 -1.5695000000000001e-01 -3.1638503071907557e+01 -2.1068965349472840e+01 -1.0785345419260478e+01 0 1 1
3630 12 5 -1.2498200000000000e-01 -3.1067692025048856e+01 -1.2125007695482482e+01 -1.1613158194377315e+01 1 0 0
3341 11 36 -2.3990999999999998e-02 -2.8550565449254343e+01 -1.9919224127341533e+01 -1.2471327061718741e+01 0 1 1
3640 12 36 -9.3352000000000004e-02 -2.8667485705785104e+01 -1.2537729744502649e+01 -1.2278726800539268e+01 1 0 0
3320 11 44 -5.9290399999999999e-01 -3.2194302295390614e+01 -2.1223122497828761e+01 -8.5924026604906985e+00 0 1 1
3632 12 5 -1.5695000000000001e-01 -2.9995815885301994e+01 -1.2158781351315293e+01 -1.2484891800987565e+01 1 0 0
3637 12 5 -6.6226999999999994e-02 -2.5565572865000394e+01 -1.3416217942723492e+01 -1.0468179263407338e+01 1 0 0
6118 19 5 -5.3722700000000001e-01 -2.5140323703203098e+01 -1.5719657821931815e+01 -7.5046587425971776e+00 1 0 0
1299 5 5 -1.2060800000000001e-01 -2.6347039034008510e+01 -1.6385316698279489e+01 -1.2546366402488676e+01 1 0 0
3642 12 5 1.1129300000000000e-01 -2.5915309312074733e+01 -1.2686768065106943e+01 -1.2735390500184355e+01 1 0 0
1381 5 5 -2.3184800000000000e-01 -3.1062974145966127e+01 -1.5264509295943824e+01 -1.3035373605400348e+01 1 0 0
3326 11 24 1.9711000000000001e-01 -3.1338004805479233e+01 -2.0854088945406623e+01 -1.2921067006909723e+01 0 1 1
3316 11 36 -9.3352000000000004e-02 -3.2969019055770971e+01 -2.1661596326792928e+01 -1.0727057268146888e+01 0 1 1
1297 5 5 -1.5797800000000001e-01 -2.7671132747938735e+01 -1.6092417790895464e+01 -1.2997729417145244e+01 1 0 0
6116 19 5 5.3212499999999996e-01 -2.6127477390365527e+01 -1.4901398621216879e+01 -7.1512825420976389e+00 1 0 0
6107 19 5 -6.4797999999999994e-02 -3.0245257547402492e+01 -1.4912814694524622e+01 -7.2453428169240555e+00 1 0 0
1303 5 36 -9.6251000000000003e-02 -2.3902099019007562e+01 -1.6287418061030852e+01 -1.3329216802967895e+01 1 0 0
1374 5 5 1.1129300000000000e-01 -3.2887506636911006e+01 -1.5583509357392119e+01 -1.1457166968024792e+01 1 0 0
3353 11 5 -5.3210000000000000e-02 -2.5013773227909521e+01 -2.0387090084581807e+01 -1.1650726968281797e+01 0 1 1
6114 19 44 -6.0508600000000001e-01 -2.7359726711114131e+01 -1.5244115923092428e+01 -7.2071857340414143e+00 1 0 0
6128 19 24 2.4243500000000001e-01 -2.5466995721318398e+01 -1.6643143630899932e+01 -8.0365850453863743e+00 1 0 0
1384 5 8 4.6590799999999999e-01 -2.9658101727028686e+01 -1.5533178165137178e+01 -1.3295129054911932e+01 1 0 0
3340 11 1 5.5994500000000003e-01 -2.8539822516360395e+01 -1.9419417643532618e+01 -1.3677645192114376e+01 0 1 1
3575 12 1 6.0642700000000005e-01 -1.6748607994182816e+01 -1.5352671350101305e+01 -1.3622740499136635e+01 1 0 0
3358 11 24 1.3608400000000001e-01 -2.4980304994686396e+01 -2.0775181360826323e+01 -1.0642175802141118e+01 0 1 1
3567 12 5 -1.2060800000000001e-01 -1.9521436313542615e+01 -1.3874216552198325e+01 -1.3461579942860991e+01 1 0 0
1300 5 5 -1.8120200000000000e-01 -2.5262120384927140e+01 -1.6182955929750719e+01 -1.3433436547213081e+01 1 0 0
1369 5 5 -6.6226999999999994e-02 -3.2668049578831436e+01 -1.7124897929164437e+01 -9.6377476617184659e+00 1 0 0
3654 12 36 -8.6329000000000003e-02 -2.1829786671045685e+01 -1.3130742710766334e+01 -1.3318086740503878e+01 1 0 0
3348 11 5 1.0577200000000000e-01 -2.6090200296749060e+01 -1.9483160661846103e+01 -1.3634997990290362e+01 0 1 1
3634 12 5 5.0674100000000000e-01 -3.0038315491384012e+01 -1.1478974991933949e+01 -1.3705516290655126e+01 1 0 0
6112 19 24 1.2939899999999999e-01 -3.2223515693394184e+01 -1.5601555519405627e+01 -7.1801357187631423e+00 1 0 0
1326 5 24 1.4476600000000001e-01 -1.8821314061490938e+01 -1.8770841396223336e+01 -1.2149151764039813e+01 1 0 0
6124 19 36 -5.1041999999999997e-02 -2.2203784865656846e+01 -1.3735070919348439e+01 -7.3944014793500168e+00 1 0 0
1313 5 5 -6.4391000000000004e-02 -1.9507463018248096e+01 -1.8157270460700598e+01 -1.2657118803183378e+01 1 0 0
3641 12 5 -4.7376000000000001e-02 -2.4205510952041791e+01 -1.3632103116307963e+01 -1.0732032786323858e+01 1 0 0
4349 14 5 -5.4396000000000000e-02 -2.2146126025195230e+01 -1.9171596675813216e+01 -8.3630214328749357e+00 0 0 0
6125 19 8 4.1647800000000001e-01 -2.1776183758632985e+01 -1.4914010811251268e+01 -7.9747002800708664e+00 1 0 0
3646 12 5 1.4591100000000001e-01 -2.4530557664338684e+01 -1.2676645408725065e+01 -1.2899495006698903e+01 1 0 0
6140 19 24 1.5006000000000000e-01 -1.6903678244945677e+01 -1.1285038634428860e+01 -7.1293219193641777e+00 1 0 0
6129 19 5 -3.6610999999999998e-02 -1.8999234946644638e+01 -1.1891464714158133e+01 -7.1450230957746301e+00 1 0 0
6126 19 44 -5.7552400000000004e-01 -2.2740378574506668e+01 -1.5849991083167899e+01 -8.0386485984584404e+00 1 0 0
5212 17 24 2.4035200000000001e-01 -1.8474178715457445e+01 -1.1348888854674259e+01 -1.2376912275295632e+01 1 0 0
3658 12 24 1.4093000000000000e-01 -2.3547515762824926e+01 -1.4055265325456674e+01 -9.9633277447420774e+00 1 0 0
3629 12 5 -2.2319000000000000e-01 -3.2197384411917717e+01 -1.1466381479788726e+01 -1.2069704386901583e+01 1 0 0
6127 19 5 -2.0939400000000000e-01 -1.9981857904962403e+01 -1.2846256802252100e+01 -7.5171960673369558e+00 1 0 0
6130 19 5 -1.9007800000000000e-01 -2.0416271809996370e+01 -1.5071574451430449e+01 -8.4093761169572172e+00 1 0 0
3645 12 5 -2.1836000000000000e-01 -2.3709105144738803e+01 -1.3241161320974058e+01 -1.1943288531679343e+01 1 0 0
3653 12 49 -4.6798699999999999e-01 -2.1587704549303414e+01 -1.3753853537290096e+01 -1.1158638332362296e+01 1 0 0
1312 5 5 -4.1861000000000002e-02 -2.0784401179917584e+01 -1.7890027603287074e+01 -1.2183909179884642e+01 1 0 0
4355 14 24 1.4302500000000001e-01 -2.1874272826138874e+01 -1.9218109777585351e+01 -9.4143480625042457e+00 0 0 0
3576 12 49 -4.7105700000000000e-01 -1.7117301264760616e+01 -1.5445688622783843e+01 -1.2467879830292880e+01 1 0 0
6123 19 1 5.7216100000000003e-01 -2.1423701214465019e+01 -1.2636577422673174e+01 -7.2318333988721912e+00 1 0 0
6138 19 5 -2.0358599999999999e-01 -1.7718818852027812e+01 -1.5411422067311010e+01 -8.8890038632254402e+00 1 0 0
4358 14 1 6.1111499999999996e-01 -1.9712882276339595e+01 -1.9583240138815764e+01 -7.7468513850130840e+00 0 0 0
6137 19 5 -6.6893999999999995e-02 -1.8615240996786433e+01 -1.6433718469499169e+01 -9.1230995696008890e+00 1 0 0
3364 11 24 1.3075200000000001e-01 -2.2859770961080915e+01 -2.0677907213138003e+01 -1.1670643176073439e+01 0 1 1
1307 5 1 6.0642700000000005e-01 -2.3136965787786682e+01 -1.6874737012862681e+01 -1.2446538458275890e+01 1 0 0
6145 19 24 1.4318700000000001e-01 -1.8281394062443756e+01 -1.7328496501112983e+01 -9.4904947261363795e+00 1 0 0
4347 14 24 1.4172299999999999e-01 -2.4222175248438848e+01 -1.9167285691412054e+01 -8.8768364478277135e+00 0 0 0
6136 19 5 -1.9442200000000001e-01 -1.7187385221707817e+01 -1.3215694772999834e+01 -7.9609862470088153e+00 1 0 0
4345 14 5 -6.0423999999999999e-02 -2.3496643590423673e+01 -1.9076993603601881e+01 -8.0883963610079430e+00 0 0 0
1309 5 5 -2.3037800000000000e-01 -2.1703090741318622e+01 -1.7134264172858170e+01 -1.2923385285547035e+01 1 0 0
3357 11 5 -3.5984000000000002e-02 -2.3769781072237631e+01 -2.0405298762004591e+01 -1.2278940414806074e+01 0 1 1
6135 19 5 1.2173500000000000e-01 -1.8130025271799543e+01 -1.4196306819884446e+01 -8.2947193000824893e+00 1 0 0
1325 5 24 1.3819899999999999e-01 -2.1016413446459342e+01 -1.8229714918130785e+01 -1.1145407871682821e+01 1 0 0
4354 14 5 -2.3162400000000000e-01 -2.1160529026157452e+01 -1.9234359422898525e+01 -7.3731194117094851e+00 0 0 0
1308 5 49 -4.7105700000000000e-01 -2.3486500726164401e+01 -1.7206151650112606e+01 -1.1361937931061604e+01 1 0 0
6134 19 5 -3.8608999999999997e-02 -1.9956961409564297e+01 -1.6282609263912043e+01 -8.8817019516188083e+00 1 0 0
6119 19 5 -1.8466099999999999e-01 -2.3590400023385694e+01 -1.3917884698838984e+01 -7.1884126128890413e+00 1 0 0
3591 12 24 1.9238000000000000e-01 -1.9510105503030740e+01 -1.4446763638380828e+01 -1.2517674235907588e+01 1 0 0
6131 19 5 1.1799500000000000e-01 -1.9502807348809061e+01 -1.4026898177592932e+01 -8.0760690196474183e+00 1 0 0
6122 19 5 4.9014000000000002e-01 -2.3836019211277499e+01 -1.5206563776308995e+01 -7.6116326572070916e+00 1 0 0
4359 14 49 -4.7287099999999999e-01 -1.9477765205056624e+01 -1.9836513483249121e+01 -8.8931484174015392e+00 0 0 0
3648 12 1 5.8926199999999995e-01 -2.2246115028163754e+01 -1.3427259824164254e+01 -1.2109906795567211e+01 1 0 0
6139 19 24 1.3000500000000001e-01 -2.0624479098524766e+01 -1.7073761115351299e+01 -9.0496884548668568e+00 1 0 0
3639 12 8 4.4378800000000002e-01 -2.8197410251441383e+01 -1.2239400694140299e+01 -1.3542620197556277e+01 1 0 0
6133 19 5 -8.8991000000000001e-02 -1.7639192744501717e+01 -1.2053654585631675e+01 -7.4412171277960200e+00 1 0 0
3356 11 5 -2.2266200000000000e-01 -2.3658391073940589e+01 -1.9946322150869442e+01 -1.3576860420642301e+01 0 1 1
4371 14 24 1.9986599999999999e-01 -1.6683525894655261e+01 -2.0055641135715415e+01 -8.5255072140697283e+00 0 0 0
6104 19 5 -2.7236000000000000e-02 -3.1605322996224196e+01 -1.4731708545735591e+01 -7.1026758232648506e+00 1 0 0
3643 12 5 -1.9097400000000000e-01 -2.6762388539141380e+01 -1.2274130667323455e+01 -1.3796693237520126e+01 1 0 0
6106 19 5 -1.9462199999999999e-01 -2.9414395894858274e+01 -1.3859223920405018e+01 -7.0805985600244581e+00 1 0 0
6117 19 24 1.4049900000000001e-01 -2.9775768241253378e+01 -1.5894902553508709e+01 -7.4522122975411511e+00 1 0 0
1383 5 5 -3.5747000000000001e-02 -3.1949544790131849e+01 -1.4459249354037825e+01 -1.3764864883384533e+01 1 0 0
1388 5 24 1.4468100000000000e-01 -3.3073476829219942e+01 -1.7643372982614117e+01 -8.7854480820952876e+00 1 0 0
6110 19 8 4.6060400000000001e-01 -2.7949472566657033e+01 -1.4066647557977788e+01 -7.0642819003703821e+00 1 0 0
590 2 5 1.4865100000000001e-01 -3.1520636956719823e+01 -1.3361591773430987e+01 -3.2288203315667592e+00 0 0 1
586 2 5 -2.2002900000000000e-01 -3.0785176384198103e+01 -1.4551227589135634e+01 -3.4128663650610505e+00 0 0 1
585 2 5 -5.7090000000000002e-02 -3.1496900674146396e+01 -1.5738196759582888e+01 -3.6753032782962758e+00 0 0 1
580 2 1 6.0036500000000004e-01 -2.9319925007977574e+01 -1.4505572958507715e+01 -3.5477937053979907e+00 0 0 1
592 2 24 1.4317199999999999e-01 -3.1006805874537115e+01 -1.6697881256586943e+01 -3.9184824532941955e+00 0 0 1
584 2 36 -1.1287600000000000e-01 -2.8756371798958686e+01 -1.3290889420549515e+01 -3.3460408731824072e+00 0 0 1
4337 14 5 4.4514799999999999e-01 -2.8755867504561611e+01 -1.8780168943532207e+01 -2.4466072955720888e+00 0 0 0
4335 14 44 -5.7847599999999999e-01 -2.9808700184572675e+01 -1.8917569681136843e+01 -1.6002086439631844e+00 0 0 0
4331 14 8 4.6242299999999997e-01 -3.0772100335590395e+01 -1.9285958928338431e+01 -2.4980317091908693e+00 0 0 0
4332 14 36 -8.1777000000000002e-02 -3.0448869266489790e+01 -1.9556802433754811e+01 -3.7975622078418163e+00 0 0 0
4333 14 5 -1.6203500000000001e-01 -2.9128898420001967e+01 -1.9088834754113297e+01 -3.7336670183373646e+00 0 0 0
578 2 49 -4.7166599999999997e-01 -2.8552765423256378e+01 -1.5471135537216130e+01 -3.7726892159944239e+00 0 0 1
4342 14 5 -4.8697600000000002e-01 -2.7424483533979643e+01 -1.8544523704132899e+01 -2.1421780278698170e+00 0 0 0
577 2 5 -1.3571000000000000e-01 -2.7398927470020563e+01 -1.2843713142642596e+01 -3.4257714097824721e+00 0 0 1
4326 14 1 5.9070299999999998e-01 -3.0962348838692183e+01 -2.0579898165702392e+01 -4.5289284444302940e+00 0 0 0
4334 14 5 -1.1559899999999999e-01 -2.8137634152440871e+01 -1.9267817286177717e+01 -4.7552801104333637e+00 0 0 0
4352 14 24 2.3203099999999999e-01 -2.7109482854084696e+01 -1.8358746395216617e+01 -1.1338310338459872e+00 0 0 0
4343 14 5 5.1964200000000005e-01 -2.6443505498224042e+01 -1.8746059282365614e+01 -3.0864188413482028e+00 0 0 0
4340 14 5 -1.9720499999999999e-01 -2.6843469477192961e+01 -1.8960953635544634e+01 -4.3964374476458854e+00 0 0 0
573 2 5 -1.2629399999999999e-01 -2.6214503845441488e+01 -1.3628571227978574e+01 -3.4329060853937836e+00 0 0 1
4328 14 5 -2.2266200000000000e-01 -3.2149532404809200e+01 -1.9495550386307279e+01 -2.1113068415575493e+00 0 0 0
583 2 24 1.9488100000000000e-01 -2.6310067054657932e+01 -1.4695454055395844e+01 -3.3717373410564329e+00 0 0 1
4344 14 36 -8.1326999999999997e-02 -2.5601780357579660e+01 -1.8985230400099095e+01 -5.0776156857384400e+00 0 0 0
591 2 5 -2.3242800000000000e-01 -3.0852638757577836e+01 -1.2113884054311413e+01 -3.1671105093187570e+00 0 0 1
587 2 8 4.7449500000000000e-01 -2.9427538942977183e+01 -1.2105146336707293e+01 -3.1853973080346205e+00 0 0 1
4323 14 5 -2.1654300000000001e-01 -3.2358841830624137e+01 -2.1002149340778885e+01 -3.9605021173598742e+00 0 0 0
4327 14 49 -4.6988099999999999e-01 -3.0458773448886639e+01 -2.1025434109768174e+01 -5.5236908557266187e+00 0 0 0
4338 14 24 1.9330600000000001e-01 -2.8420990367629553e+01 -1.9616715156158143e+01 -5.7887680051053918e+00 0 0 0
4329 14 5 -3.5984000000000002e-02 -3.2744665393929559e+01 -1.8745264131871902e+01 -1.0929918545080943e+00 0 0 0
6115 19 5 -9.6499000000000001e-02 -2.4648933596220719e+01 -1.3026502437339939e+01 -6.9241525953216785e+00 1 0 0
4363 14 36 -1.2218000000000000e-01 -1.8859294275113154e+01 -1.9392894301568770e+01 -6.7148523155334550e+00 0 0 0
6357 20 5 -4.8641999999999998e-02 -2.6342598489312213e+01 -2.1320515590631366e+01 -9.8412834094453794e-01 0 1 0
4350 14 44 -6.0381300000000004e-01 -2.5188157841207410e+01 -1.8666364607304537e+01 -2.8499537434167976e+00 0 0 0
4341 14 1 5.8653900000000003e-01 -2.5380591031961426e+01 -1.9129490338407201e+01 -6.4255242723063182e+00 0 0 0
6362 20 24 1.4095600000000000e-01 -2.5444096238870092e+01 -2.0862571703657640e+01 -5.4829576593940776e-01 0 1 0
6120 19 49 -4.6905799999999997e-01 -2.1824884378599013e+01 -1.1485069990142872e+01 -6.9013143360717741e+00 1 0 0
595 2 5 1.0809400000000000e-01 -3.2900084879961931e+01 -1.3428920606080275e+01 -3.1025468095691955e+00 0 0 1
39 1 36 2.3508000000000001e-02 -2.6391690305936496e+01 -1.1246420707829092e+01 -3.5190280642769148e-02 0 0 0
6353 20 36 -4.3104000000000003e-02 -2.5331205677932726e+01 -2.2331390522874809e+01 -4.3455085442988910e+00 0 1 0
6099 19 5 -2.3242800000000000e-01 -3.2135712899376571e+01 -1.3500866956497713e+01 -6.7481545658334010e+00 1 0 0
6121 19 24 1.8968399999999999e-01 -2.4446566555297057e+01 -1.1940213589657027e+01 -6.8411157525997934e+00 1 0 0
582 2 5 4.3905000000000000e-01 -2.7383945628586808e+01 -1.1447380840820491e+01 -3.3915085989512233e+00 0 0 1
2544 8 24 1.4023900000000000e-01 -3.2778145591111908e+01 -1.2628818237549540e+01 -2.3922590400348354e-01 1 1 0
552 2 36 -1.2837000000000001e-01 -1.6874213642960402e+01 -1.3523197252889021e+01 -4.6077867270401409e+00 0 0 1
6360 20 5 -6.4365000000000006e-02 -2.7478591516674875e+01 -2.1392928684167000e+01 -1.4949904905876010e-01 0 1 0
589 2 5 -5.5853000000000000e-02 -3.2867659862232273e+01 -1.5737967167237711e+01 -3.4479583379912011e+00 0 0 1
4324 14 5 1.3765300000000000e-01 -3.2889821676749399e+01 -2.0447353067089939e+01 -2.8053073585033954e+00 0 0 0
4336 14 24 1.3075200000000001e-01 -3.2178882143120966e+01 -1.7966485686347276e+01 -6.0391129477197703e-01 0 0 0
6341 20 5 -1.6679200000000000e-01 -2.2470319661044353e+01 -2.2297297046960203e+01 -6.7173647742529798e+00 0 1 0
6101 19 5 -2.0131599999999999e-01 -2.9058450878374227e+01 -1.1480405214220891e+01 -6.6822617855421829e+00 1 0 0
572 2 5 -1.8079500000000001e-01 -2.5034055175451410e+01 -1.2922822722674672e+01 -3.5361979489005355e+00 0 0 1
45 1 5 -3.2405699999999998e-01 -2.6567015687147563e+01 -1.3670168988336586e+01 -4.6703403979279474e-02 0 0 0
6356 20 5 -2.0918900000000001e-01 -2.6362151258509186e+01 -2.1947081182849136e+01 -2.2087893006069237e+00 0 1 0
576 2 5 5.0782400000000005e-01 -2.5001196674201346e+01 -1.1577509170049257e+01 -3.5092152693023149e+00 0 0 1
6351 20 49 -4.6240500000000001e-01 -2.4015608153285680e+01 -2.1879745399418947e+01 -2.5844236666733607e+00 0 1 0
6352 20 1 5.6971300000000002e-01 -2.5106608959970469e+01 -2.2054111752719571e+01 -3.0400454787498696e+00 0 1 0
43 1 1 5.5217000000000005e-01 -2.5702006139227866e+01 -1.2440657647725008e+01 -2.3575530850585535e-01 0 0 0
547 2 49 -4.7200900000000001e-01 -1.6900487881299675e+01 -1.5533886539588909e+01 -5.5491761933844588e+00 0 0 1
1846 6 5 4.0076899999999999e-01 -1.9068509344694366e+01 -1.5886077655465138e+01 -1.1134221757376339e+00 0 0 0
571 2 36 -9.4395000000000007e-02 -2.3673769307793687e+01 -1.3372053501029544e+01 -3.5200998171220914e+00 0 0 1
6336 20 49 -4.5867599999999997e-01 -2.0006471822170727e+01 -2.2147569896972794e+01 -5.2982161281352864e+00 0 1 0
6359 20 5 1.1307499999999999e-01 -2.7584302726933768e+01 -2.2343343757884170e+01 -2.7472962979767930e+00 0 1 0
4356 14 5 1.6684900000000000e-01 -2.1556387575369410e+01 -1.9054264636046181e+01 -6.0922606825054775e+00 0 0 0
4351 14 5 9.5814999999999997e-02 -2.2936641786195825e+01 -1.9001730434997370e+01 -5.7630860948060425e+00 0 0 0
567 2 49 -4.6882000000000001e-01 -2.3875512372578225e+01 -1.5523286840094594e+01 -4.0244660194378703e+00 0 0 1
4362 14 8 4.8744300000000002e-01 -1.9187909008534184e+01 -1.9091403125996305e+01 -5.4430150994916353e+00 0 0 0
565 2 1 6.0134100000000001e-01 -2.3195839506045992e+01 -1.4517985627340463e+01 -3.9331893360791859e+00 0 0 1
4360 14 5 -2.5324700000000000e-01 -2.0565409953253255e+01 -1.8976609173115168e+01 -5.0523828565779567e+00 0 0 0
1840 6 5 4.9296600000000002e-01 -1.6917226030972131e+01 -1.5763229372910116e+01 -2.1751063580019436e+00 0 0 0
1870 6 24 1.3179299999999999e-01 -2.2449002412342935e+01 -1.7761793931008029e+01 -1.3403189556588663e-01 0 0 0
1857 6 24 2.3219600000000001e-01 -1.8407663573774069e+01 -1.7244661959585645e+01 -2.6374416770015143e+00 0 0 0
4319 14 5 -5.6621999999999999e-02 -3.3158950542182694e+01 -2.1963500883761732e+01 -4.6001177325360576e+00 0 0 0
558 2 5 1.4154200000000000e-01 -1.9560316422305359e+01 -1.3360333413863113e+01 -4.2449755191694720e+00 0 0 1
549 2 1 6.0667099999999996e-01 -1.7524189407571566e+01 -1.4639458718340910e+01 -5.0148023871216223e+00 0 0 1
4348 14 8 4.4264500000000001e-01 -2.4671023130826470e+01 -1.8825199295411888e+01 -4.0864462263898211e+00 0 0 0
557 2 5 -4.8069000000000001e-02 -2.1145817111794333e+01 -1.5668779642109639e+01 -4.7469327689643475e+00 0 0 1
554 2 5 -2.2330600000000000e-01 -1.9012022645925310e+01 -1.4502522382809238e+01 -4.8257679429950162e+00 0 0 1
1837 6 5 -1.6093700000000000e-01 -1.6640260703845353e+01 -1.4702822078107650e+01 -1.3486734359742059e+00 0 0 0
569 2 24 1.3749300000000000e-01 -2.1758041836184493e+01 -1.6500693937153756e+01 -5.0078149215998780e+00 0 0 1
563 2 5 1.2373400000000000e-01 -2.0932462339500784e+01 -1.3379938509385866e+01 -3.9737446626652089e+00 0 0 1
559 2 5 -2.1236900000000000e-01 -1.8734423178949292e+01 -1.2242400317335310e+01 -3.9017469736280277e+00 0 0 1
4357 14 5 -6.4850000000000005e-02 -2.2281070884536806e+01 -1.8979776204499476e+01 -3.3768136858145006e+00 0 0 0
44 1 49 -4.6498400000000001e-01 -2.4536788393684677e+01 -1.2565957571058814e+01 -6.0268203559268996e-01 0 0 0
566 2 5 -2.0466899999999999e-01 -2.1529844578279270e+01 -1.2208568266364168e+01 -3.5462489013693235e+00 0 0 1
4367 14 44 -5.7030099999999995e-01 -1.8205247682877189e+01 -1.8899631214558312e+01 -4.5465313598177417e+00 0 0 0
4369 14 24 1.2481200000000001e-01 -2.0097342191185703e+01 -1.8962876776616074e+01 -3.0244549372028033e+00 0 0 0
560 2 24 1.4231199999999999e-01 -1.9379144867235464e+01 -1.6429529131232925e+01 -5.4713196684486745e+00 0 0 1
562 2 5 -2.1978200000000001e-01 -2.1751521240110666e+01 -1.4519598025868257e+01 -4.2786536878536232e+00 0 0 1
553 2 5 -5.6800000000000003e-02 -1.9809726060075175e+01 -1.5597477483279215e+01 -5.0055844626023136e+00 0 0 1
4368 14 5 4.1164699999999999e-01 -1.7143211752369876e+01 -1.9261735618932569e+01 -5.2915791722006391e+00 0 0 0
570 2 8 4.5470300000000002e-01 -2.2962787955092661e+01 -1.2184578321484182e+01 -3.5029008678266091e+00 0 0 1
4353 14 5 -1.7937100000000000e-01 -2.3256489038551234e+01 -1.8977342261426152e+01 -4.3898588727374088e+00 0 0 0
4361 14 5 -1.7493000000000002e-02 -2.0936330153779384e+01 -1.9011021505966731e+01 -3.7036355499982081e+00 0 0 0
4364 14 24 1.3893200000000000e-01 -2.2530094476792538e+01 -1.8879862335171207e+01 -2.3210332046882196e+00 0 0 0
1842 6 5 -8.8916999999999996e-02 -1.8751750857305037e+01 -1.4844022100383473e+01 -2.5247060239253610e-01 0 0 0
1839 6 5 -1.5431400000000001e-01 -1.7525188308696311e+01 -1.4200587794873016e+01 -3.7134710177130204e-01 0 0 0
1844 6 5 -4.7423799999999999e-01 -1.8174763791721542e+01 -1.6341842833145112e+01 -2.0724685428291152e+00 0 0 0
555 2 8 4.5881400000000000e-01 -1.7294534077729583e+01 -1.2356421490959990e+01 -4.0090864869843008e+00 0 0 1
1852 6 44 -5.5594500000000002e-01 -2.0207943090191328e+01 -1.6529879942276157e+01 -7.4402139627103081e-01 0 0 0
6098 19 5 1.4865100000000001e-01 -3.1325359012030937e+01 -1.2385067384526634e+01 -6.7244224232806529e+00 1 0 0
6364 20 5 -2.1734999999999999e-01 -2.8641566944481671e+01 -2.1881211192773687e+01 -6.4618467712170402e-01 0 1 0
6111 19 36 -8.6812000000000000e-02 -2.7216180698114414e+01 -1.2995121230846951e+01 -6.8089683977645228e+00 1 0 0
6105 19 1 5.9016800000000003e-01 -2.7569139026144999e+01 -1.1730318125603436e+01 -6.7925698459581536e+00 1 0 0
4346 14 5 -1.9549300000000000e-01 -2.3908192040643183e+01 -1.9057934500843960e+01 -6.7699617232605691e+00 0 0 0
4365 14 5 -1.2695300000000001e-01 -1.7473673452833655e+01 -1.9524285641855737e+01 -6.5985219560578043e+00 0 0 0
6346 20 24 1.8552900000000000e-01 -2.2456841506248384e+01 -2.2314588863623062e+01 -4.4741789895528941e+00 0 1 0
6363 20 5 1.4386900000000000e-01 -2.8705002705435824e+01 -2.2348356606774971e+01 -1.9717052055408590e+00 0 1 0
6103 19 5 1.0809400000000000e-01 -2.9927193801612265e+01 -1.2568972678603815e+01 -6.8172031490634284e+00 1 0 0
6113 19 5 -2.0849899999999999e-01 -2.5927372113604488e+01 -1.3614077067945169e+01 -6.7991116166509391e+00 1 0 0
6343 20 5 -1.1750600000000000e-01 -2.3029102654716151e+01 -2.2311715525381587e+01 -5.4165286639366368e+00 0 1 0
1872 6 5 5.0782400000000005e-01 -2.7056316168505621e+01 -1.7666696231295564e+01 3.9735481035084019e+00 0 0 0
840 3 5 -4.7173399999999999e-01 -2.7408382133967624e+01 -1.3761356095639316e+01 3.9243349730678814e+00 0 0 0
841 3 5 4.7816599999999998e-01 -2.8519136745167408e+01 -1.3513971420390194e+01 4.6207252551222364e+00 0 0 0
842 3 24 2.2648699999999999e-01 -2.7194640681154656e+01 -1.4670677266145644e+01 3.3553722808308089e+00 0 0 0
837 3 5 4.5114900000000002e-01 -2.6451769275082178e+01 -1.2817126875993111e+01 3.6712199458241015e+00 0 0 0
1875 6 5 -4.9572200000000000e-01 -2.8267019625417511e+01 -1.8289736925270535e+01 4.0537224468972655e+00 0 0 0
847 3 44 -5.6815800000000005e-01 -2.9498862346537404e+01 -1.4348608990674631e+01 4.9649342535078373e+00 0 0 0
1890 6 24 2.3448900000000000e-01 -2.8591900406492993e+01 -1.8931506396177618e+01 3.2484159676491600e+00 0 0 0
1868 6 5 -1.8079500000000001e-01 -2.6587716165263704e+01 -1.6919219534813188e+01 5.0524325057031207e+00 0 0 0
1878 6 5 4.3905000000000000e-01 -2.8967536917470515e+01 -1.8197991369306159e+01 5.2335581182123780e+00 0 0 0
1884 6 44 -5.7550199999999996e-01 -3.0138575771957893e+01 -1.8825476709502279e+01 5.4872516003785927e+00 0 0 0
1871 6 44 -5.9796099999999996e-01 -2.6181737590305328e+01 -1.7723142022929050e+01 2.9634593308605695e+00 0 0 0
260 1 36 -1.1287600000000000e-01 -2.6435564487354664e+01 -2.0927094307774951e+01 5.5568030969526312e+00 1 1 0
253 1 5 -1.3571000000000000e-01 -2.7709753392109352e+01 -2.1361165253500793e+01 5.7970387328501767e+00 1 1 0
839 3 5 -1.8442600000000001e-01 -2.8753478341411920e+01 -1.2236280778475894e+01 5.1009030017735117e+00 0 0 0
1869 6 5 -1.2629399999999999e-01 -2.7283548244727942e+01 -1.6785471618458828e+01 6.2265488708850611e+00 0 0 0
845 3 36 -4.3104000000000003e-02 -2.9999934162104417e+01 -1.2214278762147606e+01 5.6803737977763600e+00 0 0 0
846 3 8 4.0569300000000003e-01 -3.0376138338812314e+01 -1.3550462811116693e+01 5.6297943355183291e+00 0 0 0
850 3 5 -1.8288199999999999e-01 -3.1628587972531573e+01 -1.3926430974738400e+01 6.1961204516102555e+00 0 0 0
862 3 24 1.2967000000000001e-01 -3.1411663559614968e+01 -1.6106333792975683e+01 5.7613456868159236e+00 0 0 0
1867 6 36 -9.4395000000000007e-02 -2.5309581004656682e+01 -1.6468624638243586e+01 4.7292479135079812e+00 0 0 0
1866 6 8 4.5470300000000002e-01 -2.5156030423890218e+01 -1.7040623257706997e+01 3.4667977104129175e+00 0 0 0
853 3 5 -4.4277999999999998e-02 -3.1989972382850510e+01 -1.5292981415506420e+01 6.2593825440217614e+00 0 0 0
1873 6 5 -1.3571000000000000e-01 -2.8462594803083540e+01 -1.7501755929321327e+01 6.2920395143242720e+00 0 0 0
263 1 8 4.7449500000000000e-01 -2.6126446788818129e+01 -2.0272681553054504e+01 6.6777682681253872e+00 1 1 0
54 1 1 6.1801300000000003e-01 -2.8889810002364971e+01 -1.7149206975233344e+01 8.8230260152524542e-01 0 0 0
58 1 38 -5.3087899999999999e-01 -3.2025778711997511e+01 -1.5812045269330207e+01 1.3075817020626728e+00 0 0 0
56 1 36 -4.8049799999999998e-01 -3.0084332211746656e+01 -1.6919234566446779e+01 1.3960622525420248e+00 0 0 0
834 3 44 -5.6980200000000003e-01 -2.5274477852278469e+01 -1.3000586508918493e+01 3.0632784514604405e+00 0 0 0
55 1 8 1.2183099999999999e-01 -3.0768072380061824e+01 -1.5693890996383923e+01 1.1779381968132263e+00 0 0 0
831 3 8 4.4570700000000002e-01 -2.4896426973724310e+01 -1.1685837386096278e+01 3.0033171520941391e+00 0 0 0
833 3 5 -1.6679200000000000e-01 -2.6721950426234169e+01 -1.1532423252091540e+01 4.1683877184509361e+00 0 0 0
844 3 1 5.6971300000000002e-01 -3.0882398364275968e+01 -1.1192184956966633e+01 6.0479214460860122e+00 0 0 0
1900 6 24 1.2939899999999999e-01 -3.2562713654640092e+01 -1.9850071905481556e+01 6.0816181946422292e+00 0 0 0
57 1 49 -5.2170899999999998e-01 -2.8479839276702062e+01 -1.8278896199163050e+01 8.2120292709150056e-01 0 0 0
3377 11 5 -5.4396000000000000e-02 -1.6653652171704596e+01 -2.0476948621684574e+01 4.6737730279427163e+00 0 1 0
42 1 5 -3.4992499999999999e-01 -2.8499750187744613e+01 -1.2369341434682834e+01 2.8353575029017203e-01 0 0 0
3834 12 24 2.3448900000000000e-01 -3.2423203567984856e+01 -1.3469244648611211e+01 3.2927027851233350e+00 1 1 0
256 1 1 6.0036500000000004e-01 -2.5790747589887022e+01 -2.0856625207529866e+01 4.3278485780021665e+00 1 1 0
51 1 5 1.4749599999999999e-01 -2.9835465012349609e+01 -1.2190961076922628e+01 5.8921301159626516e-01 0 0 0
64 1 24 1.8507899999999999e-01 -3.1551251833971598e+01 -1.3204257429129239e+01 1.2538183710262771e+00 0 0 0