LAMMPS Description

     1580  atoms
     1810  bonds
     3240  angles
     3680  dihedrals
     0  impropers

     83  atom types
     928  bond types
     5315  angle types
     653  dihedral types
     38  improper types

  -57.0 57.0 xlo xhi
  -57.0 57.0 ylo yhi
  -120.0 120.0 zlo zhi

Masses

1 12.01  # c
2 12.01  # c1
3 12.01  # c2
4 12.01  # c3
5 12.01  # ca
6 12.01  # cp
7 12.01  # cq
8 12.01  # cc
9 12.01  # cd
10 12.01  # ce
11 12.01  # cf
12 12.01  # cg
13 12.01  # ch
14 12.01  # cx
15 12.01  # cy
16 12.01  # cu
17 12.01  # cv
18 12.01  # cz
19 1.008  # h1
20 1.008  # h2
21 1.008  # h3
22 1.008  # h4
23 1.008  # h5
24 1.008  # ha
25 1.008  # hc
26 1.008  # hn
27 1.008  # ho
28 1.008  # hp
29 1.008  # hs
30 1.008  # hw
31 1.008  # hx
32 19.00  # f
33 35.45  # cl
34 79.90  # br
35 126.9  # i
36 14.01  # n
37 14.01  # n1
38 14.01  # n2
39 14.01  # n3
40 14.01  # n4
41 14.01  # na
42 14.01  # nb
43 14.01  # nc
44 14.01  # nd
45 14.01  # ne
46 14.01  # nf
47 14.01  # nh
48 14.01  # no
49 14.01  # ni
50 14.01  # nj
51 14.01  # nk
52 14.01  # nl
53 14.01  # nm
54 14.01  # nn
55 14.01  # np
56 14.01  # nq
57 16.00  # o
58 16.00  # oh
59 16.00  # os
60 16.00  # op
61 16.00  # oq
62 16.00  # ow
63 30.97  # p2
64 30.97  # p3
65 30.97  # p4
66 30.97  # p5
67 30.97  # pb
68 30.97  # pc
69 30.97  # pd
70 30.97  # pe
71 30.97  # pf
72 30.97  # px
73 30.97  # py
74 32.06  # s
75 32.06  # s2
76 32.06  # s4
77 32.06  # s6
78 32.06  # sh
79 32.06  # ss
80 32.06  # sp
81 32.06  # sq
82 32.06  # sx
83 32.06  # sy

Atoms  # full

1 1 4 0.073814 -12.584224 14.935647 25.708905
2 1 4 -0.155391 -11.977472 14.559642 27.092477
3 1 59 -0.149202 -12.813443 13.682361 27.769034
4 1 8 0.402415 -13.427807 12.691835 27.0744
5 1 9 -0.382816 -14.053423 11.560612 27.614341
6 1 79 0.135123 -14.58509 10.666378 26.322724
7 1 9 -0.270645 -14.073438 11.641826 25.055083
8 1 8 0.169596 -13.453481 12.73626 25.644971
9 1 59 -0.294794 -12.898925 13.78579 24.991554
10 1 19 0.132408 -11.900574 15.583883 25.122548
11 1 19 0.082817 -13.532434 15.501948 25.912624
12 1 19 0.149204 -11.778564 15.458702 27.698057
13 1 19 0.148085 -11.009508 14.049846 26.911496
14 1 22 0.281873 -14.202139 11.463545 23.995908
15 1 19 0.143257 -17.22451 8.69632 30.832949
16 1 19 0.150341 -16.401461 7.286705 28.923898
17 1 9 0.285793 -14.192145 11.230162 29.030978
18 1 79 -0.177553 -13.634024 12.110291 30.321472
19 1 8 0.139005 -14.808943 10.094237 29.570545
20 1 59 -0.246023 -15.39275 9.076094 28.874014
21 1 9 -0.062145 -14.154494 11.139544 31.589487
22 1 4 0.003828 -15.67367 7.879753 29.535793
23 1 8 0.148816 -14.796801 10.045704 30.99995
24 1 4 -0.125557 -16.247563 8.179483 30.951917
25 1 59 -0.083354 -15.377953 9.010807 31.644505
26 1 19 0.148954 -16.424496 7.249736 31.516156
27 1 19 0.104906 -14.733828 7.314758 29.652742
28 1 19 0.138783 -14.651266 7.068182 37.630491
29 1 19 0.153184 -16.328687 7.008324 39.47396
30 1 19 0.133191 -10.860791 13.780224 34.867053
31 1 19 0.161044 -11.746859 15.322014 33.098474
32 1 4 -0.125025 -15.595212 7.646688 37.514315
33 1 4 -0.075492 -16.151754 7.938071 38.909721
34 1 9 0.179204 -13.950891 11.385253 33.031733
35 1 79 -0.231718 -14.480321 10.419737 34.290138
36 1 8 0.081677 -13.317401 12.483795 33.621646
37 1 59 -0.081190 -15.283124 8.837734 36.851812
38 1 59 -0.099147 -12.745067 13.523393 32.977465
39 1 9 0.090840 -13.939978 11.309797 35.571396
40 1 4 -0.104644 -12.430509 14.673778 33.684831
41 1 8 0.118184 -13.287766 12.426387 35.040316
42 1 4 -0.107652 -11.819795 14.28479 35.057644
43 1 59 -0.140263 -15.268469 8.772976 39.612318
44 1 8 0.126662 -14.695214 9.842365 37.54757
45 1 59 -0.107617 -12.68222 13.421614 35.735325
46 1 8 0.105236 -14.687459 9.808401 38.957778
47 1 9 0.040025 -14.074312 10.964779 37.007229
48 1 9 0.145058 -14.014453 10.874096 39.555404
49 1 79 -0.203260 -13.520152 11.857891 38.308482
50 1 19 0.159441 -16.296691 7.040063 36.891312
51 1 19 0.123059 -17.110454 8.467826 38.791176
52 1 19 0.157494 -11.620603 15.182793 35.683194
53 1 19 0.132269 -13.374004 15.248889 33.888949
54 1 19 0.116080 -14.385755 6.51244 53.531172
55 1 19 0.129310 -14.525042 6.799682 45.576413
56 1 19 0.152458 -16.049074 6.454577 55.414605
57 1 19 0.142019 -16.210711 6.742412 47.460196
58 1 19 0.115716 -10.716505 13.500736 42.842181
59 1 19 0.129920 -10.568116 13.207735 50.816535
60 1 19 0.141753 -11.444754 14.767145 49.048755
61 1 19 0.152407 -11.593612 15.037295 41.083213
62 1 4 -0.101909 -15.468846 7.37766 45.470222
63 1 4 -0.054130 -15.302494 7.098634 53.42503
64 1 4 -0.068400 -16.029206 7.681498 46.886372
65 1 4 -0.124517 -15.858751 7.38896 54.840406
66 1 9 -0.052422 -13.815565 11.110994 40.997251
67 1 8 0.014929 -13.684199 10.849719 48.973527
68 1 79 -0.158964 -14.36263 10.154882 42.256404
69 1 79 -0.139036 -14.205096 9.880558 50.211587
70 1 8 0.159863 -13.173115 12.204306 41.596774
71 1 9 0.137088 -13.033216 11.939386 49.552705
72 1 59 -0.162470 -15.016574 8.302729 52.783621
73 1 59 -0.130790 -15.160719 8.581689 44.818478
74 1 59 -0.095067 -12.605027 13.257945 40.943381
75 1 59 -0.160515 -12.465455 12.969646 48.91811
76 1 8 -0.066032 -13.655651 10.76486 51.512441
77 1 9 0.105664 -13.78612 11.0474 43.557307
78 1 4 -0.064465 -12.137364 14.124139 49.625501
79 1 4 -0.123996 -12.281508 14.4031 41.660358
80 1 9 0.165623 -13.003581 11.881978 50.971376
81 1 8 0.118712 -13.147725 12.160938 43.006233
82 1 4 -0.108854 -11.535326 13.739324 51.008674
83 1 4 -0.052802 -11.684469 14.010531 43.023162
84 1 59 -0.159006 -15.14196 8.503419 47.57821
85 1 59 -0.095845 -15.002531 8.215649 55.542954
86 1 9 0.117787 -14.419704 9.30213 53.488989
87 1 8 0.161717 -14.559887 9.568107 45.513087
88 1 59 -0.163963 -12.533362 13.151464 43.700867
89 1 59 -0.128552 -12.367479 12.849588 51.664487
90 1 8 0.138424 -14.543173 9.528912 46.932906
91 1 9 0.157566 -14.381394 9.240548 54.8973
92 1 8 0.109527 -13.781451 10.416197 52.927929
93 1 9 -0.060757 -13.934271 10.69933 44.973146
94 1 8 0.011841 -13.874412 10.608647 47.52132
95 1 8 -0.047847 -13.72588 10.315118 55.50566
96 1 79 -0.163050 -13.223046 11.295268 54.238394
97 1 79 -0.138621 -13.362476 11.583038 46.27365
98 1 19 0.145958 -16.03896 6.50976 52.823495
99 1 19 0.145145 -16.182961 6.788192 44.868337
100 1 19 0.119284 -16.988049 8.211781 46.757842
101 1 19 0.138850 -16.843763 7.932292 54.73297
102 1 19 0.147251 -11.327458 14.633154 51.623864
103 1 19 0.145825 -11.485134 14.908006 43.658697
104 1 19 0.118668 -13.049834 14.694483 49.81891
105 1 19 0.137790 -13.225288 14.979267 41.844506
106 1 19 0.083833 -16.397692 7.24404 70.674141
107 1 19 0.150863 -11.020564 14.102336 64.981463
108 1 19 0.132434 -16.616013 7.596976 62.703954
109 1 4 0.067445 -15.425602 6.718922 70.782725
110 1 19 0.152689 -11.199368 14.422425 57.01899
111 1 8 -0.269897 -13.319611 9.66077 71.419147
112 1 79 0.134825 -12.803103 10.6445 70.16189
113 1 9 0.167970 -13.974982 8.585672 70.820772
114 1 59 -0.292737 -14.547032 7.545017 71.484923
115 1 8 -0.380321 -13.374898 9.760792 68.861387
116 1 9 0.403282 -13.982736 8.619636 69.410564
117 1 19 0.134120 -15.598432 5.775663 71.34619
118 1 79 -0.178620 -13.820424 9.248596 66.136582
119 1 8 0.282442 -13.24424 10.117736 67.456282
120 1 4 -0.103402 -15.653351 7.054238 62.811741
121 1 4 -0.130086 -11.18868 13.167888 65.545327
122 1 59 -0.150148 -14.592528 7.638449 68.706344
123 1 9 0.139702 -12.627442 11.253662 66.916715
124 1 8 -0.055830 -13.325838 10.231335 64.90963
125 1 9 0.147587 -12.648402 11.306896 65.487685
126 1 59 -0.244839 -12.030714 12.253591 67.612098
127 1 59 -0.097602 -14.761391 7.884969 63.503978
128 1 8 0.175249 -13.524869 9.994964 63.457798
129 1 9 0.078319 -14.189057 8.924568 62.859797
130 1 4 -0.151996 -14.87359 6.442636 69.358138
131 1 59 -0.082630 -12.067108 12.341264 64.853114
132 1 19 0.160658 -15.830285 6.124491 63.375979
133 1 19 0.148708 -15.58346 5.839127 68.765464
134 1 79 -0.232951 -13.012932 10.969356 62.210127
135 1 9 0.120214 -14.205629 8.963234 61.449964
136 1 4 -0.077748 -11.381016 13.483868 57.58283
137 1 19 0.144151 -10.216589 12.642769 65.653912
138 1 8 0.097608 -13.588973 10.099688 60.900412
139 1 59 -0.107670 -14.811175 7.968006 60.754955
140 1 19 0.106527 -12.693455 14.027382 66.854114
141 1 59 -0.086233 -12.231868 12.574273 59.649975
142 1 4 0.001894 -11.749651 13.449404 66.960304
143 1 8 0.028610 -13.463172 10.44835 59.484923
144 1 9 0.137895 -12.837556 11.579574 58.944981
145 1 4 -0.110658 -15.105912 6.768613 61.396739
146 1 19 0.158557 -15.82017 6.179674 60.784869
147 1 19 0.135277 -12.889752 14.356346 58.902375
148 1 9 0.099052 -12.858231 11.631752 57.535921
149 1 79 -0.200325 -14.034356 9.586964 58.185592
150 1 59 -0.136056 -12.263689 12.671285 56.881406
151 1 19 0.120975 -10.413498 12.949411 57.701001
152 1 4 -0.113404 -11.946091 13.778896 58.99858
153 1 8 0.143689 -13.52242 10.561355 56.937921
154 1 19 0.148182 -13.934501 5.855848 69.463929
155 1 19 0.150787 -11.022003 14.04298 67.562214
156 1 19 0.133582 -14.161966 6.190107 61.512915
157 1 19 0.156995 -11.223157 14.363663 59.600091
158 1 22 0.281770 -13.16007 9.810378 72.496396
159 2 4 0.073814 11.076814 -5.478548 79.935519
160 2 4 -0.155391 10.642829 -4.833277 78.586786
161 2 59 -0.149202 11.202605 -5.517412 77.516828
162 2 8 0.402415 11.263384 -6.872171 77.561934
163 2 9 -0.382816 11.511954 -7.730881 76.483309
164 2 79 0.135123 11.422188 -9.271893 77.089793
165 2 9 -0.270645 11.083779 -8.938193 78.700484
166 2 8 0.169596 11.037067 -7.553213 78.799214
167 2 59 -0.294794 10.801589 -6.842367 79.928483
168 2 19 0.132408 10.587131 -4.988325 80.80229
169 2 19 0.082817 12.18769 -5.337359 80.021082
170 2 19 0.149204 10.909226 -3.764423 78.552375
171 2 19 0.148085 9.539248 -4.911837 78.512379
172 2 22 0.281873 10.937239 -9.649876 79.501878
173 2 19 0.143257 13.929252 -9.649874 72.113694
174 2 19 0.150341 12.30086 -11.328667 73.029607
175 2 9 0.285793 11.778963 -7.343113 75.099965
176 2 79 -0.177553 11.839217 -5.802496 74.488107
177 2 8 0.139005 12.017696 -8.201954 74.019549
178 2 59 -0.246023 12.040061 -9.566132 74.053009
179 2 9 -0.062145 12.187463 -6.136064 72.879208
180 2 4 0.003828 11.973647 -10.271916 72.850696
181 2 8 0.148816 12.254785 -7.529672 72.779579
182 2 4 -0.125557 12.870739 -9.582291 71.781003
183 2 59 -0.083354 12.518242 -8.244697 71.664442
184 2 19 0.148954 12.790789 -10.089056 70.805863
185 2 19 0.104906 10.930581 -10.257548 72.492913
186 2 19 0.138783 12.249401 -6.480708 65.585794
187 2 19 0.153184 14.095769 -6.312607 63.918951
188 2 19 0.133191 10.785203 -1.13618 71.61472
189 2 19 0.161044 11.835219 -1.194627 73.891593
190 2 4 -0.125025 13.301369 -6.486054 65.949848
191 2 4 -0.075492 14.17572 -5.805843 64.894091
192 2 9 0.179204 12.362314 -5.15299 71.79068
193 2 79 -0.231718 12.718864 -5.491001 70.192331
194 2 8 0.081677 12.304829 -3.759251 71.8921
195 2 59 -0.081190 13.337335 -5.771774 67.151268
196 2 59 -0.099147 12.05121 -3.044094 73.009028
197 2 9 0.090840 12.797259 -3.954696 69.592814
198 2 4 -0.104644 12.324902 -1.68485 73.024822
199 2 8 0.118184 12.52071 -3.091807 70.657306
200 2 4 -0.107652 11.880481 -1.053177 71.678576
201 2 59 -0.140263 13.813983 -4.454914 64.77146
202 2 8 0.126662 13.306068 -4.416619 67.111536
203 2 59 -0.107617 12.469769 -1.736917 70.613992
204 2 8 0.105236 13.548993 -3.744464 65.895356
205 2 9 0.040025 13.058433 -3.566801 68.18568
206 2 9 0.145058 13.44479 -2.3557 65.97458
207 2 79 -0.203260 13.129122 -2.012586 67.571335
208 2 19 0.159441 13.597536 -7.547775 66.132144
209 2 19 0.123059 15.222525 -5.855776 65.233952
210 2 19 0.157494 12.149945 0.024827 71.626647
211 2 19 0.132269 13.434843 -1.53477 73.114866
212 2 19 0.116080 14.762259 1.039621 51.789374
213 2 19 0.129310 13.514433 -2.718254 58.695995
214 2 19 0.152458 16.603989 1.234781 50.090185
215 2 19 0.142019 15.376773 -2.531721 56.995908
216 2 19 0.115716 12.035161 2.639736 64.695062
217 2 19 0.129920 13.276217 6.406629 57.769132
218 2 19 0.141753 14.324362 6.365964 60.054967
219 2 19 0.152407 13.076872 2.585732 66.961385
220 2 4 -0.101909 14.567934 -2.719024 59.05129
221 2 4 -0.054130 15.794215 1.056369 52.150048
222 2 4 -0.068400 15.454254 -2.02064 57.984287
223 2 4 -0.124517 16.671633 1.74573 51.076773
224 2 9 -0.052422 13.620576 -1.381517 64.881572
225 2 8 0.014929 14.889274 2.403554 57.969977
226 2 79 -0.158964 13.996801 -1.719265 63.286805
227 2 79 -0.139036 15.232919 2.05626 56.387355
228 2 8 0.159863 13.554787 0.016665 64.972442
229 2 9 0.137088 14.81058 3.792454 58.076573
230 2 59 -0.162470 15.862761 1.780195 53.339325
231 2 59 -0.130790 14.614337 -1.991146 60.250223
232 2 59 -0.095067 13.308536 0.73627 66.1044
233 2 59 -0.160515 14.559429 4.503295 59.180262
234 2 8 -0.066032 15.304544 3.601584 55.768529
235 2 9 0.105664 14.04688 -0.156423 62.673359
236 2 4 -0.064465 14.822349 5.871298 59.198746
237 2 4 -0.123996 13.573925 2.099957 66.109645
238 2 9 0.165623 15.026461 4.459898 56.84178
239 2 8 0.118712 13.778037 0.688557 63.752679
240 2 4 -0.108854 14.389299 6.507678 57.845532
241 2 4 -0.052802 13.138743 2.718296 64.769468
242 2 59 -0.159006 15.082083 -0.683309 57.864144
243 2 59 -0.095845 16.331442 3.07914 50.948764
244 2 9 0.117787 15.82319 3.139792 53.289042
245 2 8 0.161717 14.56433 -0.645147 60.202429
246 2 59 -0.163963 13.717258 2.043315 63.707573
247 2 59 -0.128552 14.937105 5.80537 56.78682
248 2 8 0.138424 14.798951 0.031452 58.975698
249 2 9 0.157566 16.0277 3.802529 52.061217
250 2 8 0.109527 15.552813 3.980197 54.377122
251 2 9 -0.060757 14.31576 0.213563 61.281053
252 2 8 0.011841 14.702116 1.424663 59.069953
253 2 8 -0.047847 15.944705 5.196132 52.135265
254 2 79 -0.163050 15.616134 5.529964 53.747746
255 2 79 -0.138621 14.366774 1.767514 60.663126
256 2 19 0.145958 16.1328 0.004325 52.321991
257 2 19 0.145145 14.885909 -3.762441 59.224132
258 2 19 0.119284 16.499526 -2.075148 58.332907
259 2 19 0.138850 17.749484 1.700768 51.413249
260 2 19 0.147251 14.647392 7.580975 57.800571
261 2 19 0.145825 13.40974 3.800875 64.708781
262 2 19 0.118668 15.900309 6.025298 59.296655
263 2 19 0.137790 14.680799 2.240887 66.217206
264 2 19 0.083833 20.056392 9.214398 37.520188
265 2 19 0.150863 16.658313 13.884305 46.180518
266 2 19 0.132434 18.902003 5.466474 44.471199
267 2 4 0.067445 18.997281 9.268514 37.191775
268 2 19 0.152689 15.457206 10.131406 53.109334
269 2 8 -0.269897 18.295264 12.705587 38.281916
270 2 79 0.134825 17.957454 13.052753 39.888328
271 2 9 0.167970 18.379793 11.316559 38.19911
272 2 59 -0.292737 18.63648 10.610552 37.064664
273 2 8 -0.380321 17.90644 11.498802 40.506256
274 2 9 0.403282 18.136868 10.644404 39.41529
275 2 19 0.134120 18.908428 8.752727 36.210364
276 2 79 -0.178620 17.613589 9.579577 42.535102
277 2 8 0.282442 17.658768 11.133655 41.893385
278 2 4 -0.103402 17.844762 5.502809 44.133825
279 2 4 -0.130086 16.568526 13.377409 45.203587
280 2 59 -0.150148 18.195179 9.293961 39.473635
281 2 9 0.139702 17.420035 11.992497 42.973801
282 2 8 -0.055830 17.300989 9.931841 44.114339
283 2 9 0.147587 17.192784 11.320346 44.215562
284 2 59 -0.244839 17.378931 13.347519 42.932277
285 2 59 -0.097602 17.471655 6.84903 44.018162
286 2 8 0.175249 17.123669 8.953083 45.216106
287 2 9 0.078319 17.218035 7.564187 45.13509
288 2 4 -0.151996 18.127232 8.583601 38.280081
289 2 59 -0.082630 16.93086 12.039946 45.321939
290 2 19 0.160658 17.764812 4.996044 43.158685
291 2 19 0.148708 18.437837 7.535737 38.437891
292 2 79 -0.232951 16.788327 9.295933 46.809279
293 2 9 0.120214 16.984948 6.892164 46.353062
294 2 4 -0.077748 15.378191 9.61575 52.129714
295 2 19 0.144151 15.509414 13.431526 44.875175
296 2 8 0.097608 16.744682 7.74643 47.442236
297 2 59 -0.107670 17.03589 5.537273 46.396376
298 2 19 0.106527 18.50038 14.057108 44.481127
299 2 59 -0.086233 16.198434 9.585993 49.860195
300 2 4 0.001894 17.446879 14.057879 44.125832
301 2 8 0.028610 16.496412 7.367817 48.833644
302 2 9 0.137895 16.247842 8.226527 49.912268
303 2 4 -0.110658 16.977181 4.81358 45.208891
304 2 19 0.158557 17.293622 3.765588 45.390491
305 2 19 0.135277 17.320481 10.309048 51.404767
306 2 9 0.099052 16.023657 7.563527 51.136512
307 2 79 -0.200325 16.453365 5.831781 49.462323
308 2 59 -0.136056 15.747894 8.282736 52.263096
309 2 19 0.120975 14.321548 9.665551 51.788062
310 2 4 -0.113404 16.265446 10.305243 51.05823
311 2 8 0.143689 16.118023 6.174631 51.055496
312 2 19 0.148182 17.074666 8.575481 37.920305
313 2 19 0.150787 17.118132 15.110054 43.95568
314 2 19 0.133582 15.925214 4.818925 44.844837
315 2 19 0.156995 15.937634 11.348528 50.883598
316 2 22 0.281770 18.406457 13.417001 37.451359
317 3 4 0.073814 -12.136831 17.857247 -18.027887
318 3 4 -0.155391 -11.393652 17.390239 -16.742045
319 3 59 -0.149202 -11.825664 16.127585 -16.360899
320 3 8 0.402415 -12.050313 15.192686 -17.318289
321 3 9 -0.382816 -12.197087 13.813993 -17.117627
322 3 79 0.135123 -12.3981 13.147181 -18.622803
323 3 9 -0.270645 -12.320945 14.529643 -19.573091
324 3 8 0.169596 -12.132606 15.586273 -18.690956
325 3 59 -0.294794 -12.024947 16.894696 -19.026275
326 3 19 0.132408 -11.758918 18.836251 -18.388626
327 3 19 0.082817 -13.220812 17.966903 -17.755378
328 3 19 0.149204 -11.523608 18.114292 -15.9214
329 3 19 0.148085 -10.311554 17.332625 -16.977299
330 3 22 0.281873 -12.405671 14.592092 -20.649716
331 3 19 0.143257 -13.988064 9.273858 -14.92697
332 3 19 0.150341 -12.758587 8.796384 -17.064563
333 3 9 0.285793 -12.162064 13.107478 -15.838991
334 3 79 -0.177553 -11.931302 13.771589 -14.336591
335 3 8 0.139005 -12.298922 11.727886 -15.639254
336 3 59 -0.246023 -12.485038 10.779875 -16.603223
337 3 9 -0.062145 -12.018374 12.390028 -13.385377
338 3 4 0.003828 -12.28405 9.437628 -16.27753
339 3 8 0.148816 -12.227677 11.325689 -14.268538
340 3 4 -0.125557 -12.886202 9.13701 -14.873379
341 3 59 -0.083354 -12.365707 10.022924 -13.939976
342 3 19 0.148954 -12.690101 8.096281 -14.569194
343 3 19 0.104906 -11.198895 9.24462 -16.240279
344 3 19 0.138783 -10.796511 7.027046 -8.583089
345 3 19 0.153184 -12.27791 5.893233 -6.929117
346 3 19 0.133191 -9.839865 15.124176 -9.342775
347 3 19 0.161044 -11.284856 16.631395 -10.73216
348 3 4 -0.125025 -11.890449 7.230464 -8.616538
349 3 4 -0.075492 -12.474011 6.933962 -7.233302
350 3 9 0.179204 -11.877763 12.317978 -11.916726
351 3 79 -0.231718 -11.975372 10.940275 -10.974119
352 3 8 0.081677 -11.678376 13.383218 -11.032639
353 3 59 -0.081190 -12.060557 8.57952 -8.94213
354 3 59 -0.099147 -11.550263 14.686882 -11.360276
355 3 9 0.090840 -11.765064 11.609145 -9.479401
356 3 4 -0.104644 -11.662769 15.652391 -10.37142
357 3 8 0.118184 -11.58792 12.982178 -9.673307
358 3 4 -0.107652 -10.911426 15.177931 -9.098914
359 3 59 -0.140263 -11.941847 7.825528 -6.288415
360 3 8 0.126662 -11.865657 9.517121 -7.981964
361 3 59 -0.107617 -11.373187 13.917978 -8.714992
362 3 8 0.105236 -11.804439 9.13125 -6.626509
363 3 9 0.040025 -11.720014 10.886303 -8.185503
364 3 9 0.145058 -11.555981 10.179521 -5.740395
365 3 79 -0.203260 -11.497416 11.557866 -6.669768
366 3 19 0.159441 -12.335859 6.589478 -9.415879
367 3 19 0.123059 -13.563693 7.08893 -7.282063
368 3 19 0.157494 -11.04014 15.896068 -8.259205
369 3 19 0.132269 -12.745618 15.771557 -10.096034
370 3 19 0.116080 -9.876983 2.586376 6.669645
371 3 19 0.129310 -10.346408 4.813845 -0.959124
372 3 19 0.152458 -11.344851 1.44934 8.363699
373 3 19 0.142019 -11.83524 3.6691 0.733903
374 3 19 0.115716 -9.368067 12.9003 -1.692063
375 3 19 0.129920 -8.887484 10.666014 5.954845
376 3 19 0.141753 -10.330211 12.192253 4.571214
377 3 19 0.152407 -10.80252 14.40366 -3.072842
378 3 4 -0.101909 -11.439726 5.014305 -0.98304
379 3 4 -0.054130 -10.948205 2.804055 6.649633
380 3 4 -0.068400 -12.03083 4.722297 0.423063
381 3 4 -0.124517 -11.530524 2.501636 8.051934
382 3 9 -0.052422 -11.416502 10.09796 -4.274621
383 3 8 0.014929 -10.963404 7.885395 3.380818
384 3 79 -0.158964 -11.533944 8.722058 -3.330164
385 3 79 -0.139036 -11.052339 6.512708 4.303435
386 3 8 0.159863 -11.206578 11.159342 -3.381928
387 3 9 0.137088 -10.744806 8.951792 4.253522
388 3 59 -0.162470 -11.146819 4.149896 6.345882
389 3 59 -0.130790 -11.617996 6.370813 -1.295297
390 3 59 -0.095067 -11.08787 12.476375 -3.715294
391 3 59 -0.160515 -10.617203 10.242989 3.932539
392 3 8 -0.066032 -10.830873 7.174761 5.816293
393 3 9 0.105664 -11.290381 9.401331 -1.813402
394 3 4 -0.064465 -10.718661 11.217107 4.923347
395 3 4 -0.123996 -11.189838 13.438025 -2.717832
396 3 9 0.165623 -10.654349 8.550753 5.612854
397 3 8 0.118712 -11.125527 10.77167 -2.028325
398 3 4 -0.108854 -9.976613 10.740589 6.206311
399 3 4 -0.052802 -10.450165 12.957913 -1.45681
400 3 59 -0.159006 -11.490502 5.606411 1.354615
401 3 59 -0.095845 -11.020456 3.375983 8.992917
402 3 9 0.117787 -10.941382 5.083638 7.314655
403 3 8 0.161717 -11.404396 7.297103 -0.339859
404 3 59 -0.163963 -10.900878 11.70657 -1.070935
405 3 59 -0.128552 -10.401083 9.473442 6.56459
406 3 8 0.138424 -11.33264 6.907374 1.024202
407 3 9 0.157566 -10.84163 4.684656 8.66353
408 3 8 0.109527 -10.777148 6.456936 7.0902
409 3 9 -0.060757 -11.257621 8.675796 -0.540521
410 3 8 0.011841 -11.093588 7.969013 1.904587
411 3 8 -0.047847 -10.612384 5.731769 9.561027
412 3 79 -0.163050 -10.545145 7.115131 8.611664
413 3 79 -0.138621 -11.01519 9.345558 0.973363
414 3 19 0.145958 -11.432038 2.160753 5.873058
415 3 19 0.145145 -11.902594 4.378713 -1.758589
416 3 19 0.119284 -13.121133 4.880223 0.36477
417 3 19 0.138850 -12.649334 2.656347 8.015481
418 3 19 0.147251 -10.096032 11.460784 7.035563
419 3 19 0.145825 -10.578258 13.673092 -0.607568
420 3 19 0.118668 -11.77125 11.346041 5.189302
421 3 19 0.137790 -12.273929 13.563108 -2.46151
422 3 19 0.083833 -11.511939 -1.84745 23.286884
423 3 19 0.150863 -9.222053 7.703625 19.838739
424 3 19 0.132434 -12.079505 0.413959 15.65406
425 3 4 0.067445 -10.41183 -1.99085 23.328065
426 3 19 0.152689 -9.740549 9.948064 12.207942
427 3 8 -0.269897 -9.525301 1.250858 24.811338
428 3 79 0.134825 -9.446393 2.639871 23.87346
429 3 9 0.167970 -9.753926 0.200787 23.923373
430 3 59 -0.292737 -9.880797 -1.108794 24.270075
431 3 8 -0.380321 -9.688824 1.970109 22.359576
432 3 9 0.403282 -9.815145 0.586658 22.567919
433 3 19 0.134120 -10.206944 -3.041989 23.628447
434 3 79 -0.178620 -9.993252 2.04105 19.568932
435 3 8 0.282442 -9.740795 2.694486 21.098078
436 3 4 -0.103402 -10.981659 0.251539 15.689486
437 3 4 -0.130086 -9.016036 6.661996 20.141998
438 3 59 -0.150148 -10.039283 -0.335774 21.603875
439 3 9 0.139702 -9.603937 4.074078 20.898341
440 3 8 -0.055830 -9.933445 3.413479 18.658624
441 3 9 0.147587 -9.685098 4.477176 19.528551
442 3 59 -0.244839 -9.39912 5.010779 21.857582
443 3 59 -0.097602 -10.4402 1.145162 16.623915
444 3 8 0.175249 -10.073545 3.497998 17.183318
445 3 9 0.078319 -10.312087 2.448827 16.296279
446 3 4 -0.151996 -9.838915 -1.675063 21.920035
447 3 59 -0.082630 -9.546447 5.776982 19.209521
448 3 19 0.160658 -10.785558 -0.78919 15.993671
449 3 19 0.148708 -10.292379 -2.324024 21.150216
450 3 79 -0.232951 -9.995148 4.874543 16.252094
451 3 9 0.120214 -10.383221 2.835598 14.94175
452 3 4 -0.077748 -9.545579 8.897825 12.50925
453 3 19 0.144151 -7.915927 6.518596 20.183179
454 3 8 0.097608 -10.246984 4.218148 14.732481
455 3 59 -0.107670 -10.597954 1.899798 13.983435
456 3 19 0.106527 -10.692805 6.550527 21.517505
457 3 59 -0.086233 -9.93858 7.247508 14.225759
458 3 4 0.001894 -9.599488 6.350068 21.541421
459 3 8 0.028610 -10.300708 4.935974 13.458574
460 3 9 0.137895 -10.153934 6.314666 13.257911
461 3 4 -0.110658 -10.409256 0.554857 14.288111
462 3 19 0.158557 -10.872746 -0.077777 13.50303
463 3 19 0.135277 -11.230512 8.793809 13.898092
464 3 9 0.099052 -10.233853 6.711847 11.907186
465 3 79 -0.200325 -10.550792 4.286131 11.95137
466 3 59 -0.136056 -10.085396 8.026179 11.571043
467 3 19 0.120975 -8.445981 8.741957 12.557086
468 3 4 -0.113404 -10.137815 8.596307 13.912476
469 3 8 0.143689 -10.472394 5.662677 11.020146
470 3 19 0.148182 -8.74673 -1.885033 21.941074
471 3 19 0.150787 -9.125571 6.99427 22.318922
472 3 19 0.133582 -9.315317 0.351439 14.32156
473 3 19 0.156995 -9.665031 9.230999 14.687099
474 3 22 0.281770 -9.4008 1.169382 25.900448
475 4 4 0.073814 -15.465418 -6.411075 -23.076893
476 4 4 -0.155391 -16.057478 -6.740561 -21.675214
477 4 59 -0.149202 -16.571565 -5.595987 -21.082032
478 4 8 0.402415 -17.254948 -4.708638 -21.847994
479 4 9 -0.382816 -18.081012 -3.674769 -21.388284
480 4 79 0.135123 -18.697766 -2.940306 -22.741347
481 4 9 -0.270645 -17.964651 -3.860731 -23.939495
482 4 8 0.169596 -17.185458 -4.798721 -23.273812
483 4 59 -0.294794 -16.407468 -5.744334 -23.853938
484 4 19 0.132408 -15.108839 -7.323841 -23.597574
485 4 19 0.082817 -14.590943 -5.726924 -22.907981
486 4 19 0.149204 -15.304022 -7.215115 -21.025827
487 4 19 0.148085 -16.887084 -7.462306 -21.818172
488 4 22 0.281873 -18.068705 -3.74794 -25.010313
489 4 19 0.143257 -19.609145 0.540546 -18.470181
490 4 19 0.150341 -21.198208 0.167012 -20.379174
491 4 9 0.285793 -18.355113 -3.327704 -19.995548
492 4 79 -0.177553 -17.761242 -4.081567 -18.642585
493 4 8 0.139005 -19.188805 -2.300302 -19.535871
494 4 59 -0.246023 -19.90913 -1.431228 -20.30297
495 4 9 -0.062145 -18.48673 -3.154675 -17.444403
496 4 4 0.003828 -20.924927 -0.684591 -19.703978
497 4 8 0.148816 -19.257099 -2.196161 -18.111023
498 4 4 -0.125557 -20.452547 -0.16647 -18.313652
499 4 59 -0.083354 -20.011532 -1.231892 -17.540747
500 4 19 0.148954 -21.257963 0.378823 -17.795907
501 4 19 0.104906 -21.79929 -1.339593 -19.553437
502 4 19 0.138783 -22.163364 -0.781037 -11.599346
503 4 19 0.153184 -21.621885 0.921834 -9.860745
504 4 19 0.133191 -17.296773 -6.958095 -13.88321
505 4 19 0.161044 -15.513445 -6.825734 -15.641709
506 4 4 -0.125025 -21.274943 -0.12716 -11.748851
507 4 4 -0.075492 -20.816469 0.37654 -10.37849
508 4 9 0.179204 -18.352805 -3.335633 -15.984534
509 4 79 -0.231718 -19.069991 -2.403019 -14.796268
510 4 8 0.081677 -17.574808 -4.28768 -15.317881
511 4 59 -0.081190 -20.275597 -0.900788 -12.346939
512 4 59 -0.099147 -16.812748 -5.245483 -15.888124
513 4 9 0.090840 -18.46019 -3.144692 -13.453188
514 4 4 -0.104644 -15.870024 -5.912968 -15.121028
515 4 8 0.118184 -17.657683 -4.197217 -13.903049
516 4 4 -0.107652 -16.475468 -6.242073 -13.730335
517 4 59 -0.140263 -20.377325 -0.702195 -9.594665
518 4 8 0.126662 -19.569332 -1.768737 -11.580876
519 4 59 -0.107617 -16.966673 -5.0781 -13.137053
520 4 8 0.105236 -19.622218 -1.667209 -10.174891
521 4 9 0.040025 -18.749699 -2.795014 -12.04159
522 4 9 0.145058 -18.889465 -2.643254 -9.499458
523 4 79 -0.203260 -18.142443 -3.549258 -10.677641
524 4 19 0.159441 -21.570432 0.7043 -12.434095
525 4 19 0.123059 -19.967832 1.061907 -10.533045
526 4 19 0.157494 -15.723361 -6.71514 -13.06105
527 4 19 0.132269 -14.989117 -5.236408 -14.951113
528 4 19 0.116080 -22.986107 0.262347 4.257686
529 4 19 0.129310 -22.563555 -0.257046 -3.67527
530 4 19 0.152458 -22.448521 1.954136 6.037055
531 4 19 0.142019 -22.017145 1.455267 -1.896838
532 4 19 0.115716 -17.714242 -6.444806 -5.929352
533 4 19 0.129920 -18.145769 -5.930391 2.023469
534 4 19 0.141753 -16.349578 -5.813213 0.266976
535 4 19 0.152407 -15.939215 -6.318167 -7.677936
536 4 4 -0.101909 -21.675807 0.397575 -3.814825
537 4 4 -0.054130 -22.100752 0.888852 4.120071
538 4 4 -0.068400 -21.204623 0.901638 -2.423529
539 4 4 -0.124517 -21.643627 1.39404 5.51033
540 4 9 -0.052422 -18.761972 -2.816621 -8.040592
541 4 8 0.014929 -19.157754 -2.297989 -0.085664
542 4 79 -0.158964 -19.463902 -1.871073 -6.85226
543 4 79 -0.139036 -19.881218 -1.373329 1.082669
544 4 8 0.159863 -17.992277 -3.774391 -7.364023
545 4 9 0.137088 -18.394338 -3.263714 0.570973
546 4 59 -0.162470 -21.079872 0.136112 3.541981
547 4 59 -0.130790 -20.663077 -0.376433 -4.401927
548 4 59 -0.095067 -17.215483 -4.734062 -7.943179
549 4 59 -0.160515 -17.639383 -4.213181 0.009676
550 4 8 -0.066032 -19.280394 -2.119982 2.445614
551 4 9 0.105664 -18.86547 -2.645841 -5.487374
552 4 4 -0.064465 -16.697855 -4.894723 0.777742
553 4 4 -0.123996 -16.281061 -5.407269 -7.166167
554 4 9 0.165623 -18.477213 -3.17325 1.985804
555 4 8 0.118712 -18.060418 -3.685796 -5.958104
556 4 4 -0.108854 -17.296346 -5.216618 2.178417
557 4 4 -0.052802 -16.884635 -5.723061 -5.786394
558 4 59 -0.159006 -20.778864 -0.176716 -1.65069
559 4 59 -0.095845 -21.20209 0.343421 6.292215
560 4 9 0.117787 -20.381908 -0.73756 4.31796
561 4 8 0.161717 -19.978498 -1.249725 -3.636935
562 4 59 -0.163963 -17.377036 -4.573145 -5.192141
563 4 59 -0.128552 -17.823144 -4.072408 2.750663
564 4 8 0.138424 -20.039686 -1.153919 -2.221033
565 4 9 0.157566 -20.471736 -0.654307 5.722809
566 4 8 0.109527 -19.576182 -1.778258 3.837281
567 4 9 -0.060757 -19.152434 -2.283593 -4.096645
568 4 8 0.011841 -19.2922 -2.131833 -1.554513
569 4 8 -0.047847 -19.724402 -1.616675 6.408257
570 4 79 -0.163050 -18.983659 -2.530633 5.210142
571 4 79 -0.138621 -18.560433 -3.05077 -2.732763
572 4 19 0.145958 -22.367079 1.747667 3.454858
573 4 19 0.145145 -21.950959 1.235865 -4.479101
574 4 19 0.119284 -20.355312 1.586261 -2.588034
575 4 19 0.138850 -20.772781 2.099551 5.365824
576 4 19 0.147251 -16.551193 -5.696895 2.83772
577 4 19 0.145825 -16.133202 -6.195383 -5.107159
578 4 19 0.118668 -15.832726 -4.245899 0.938611
579 4 19 0.137790 -15.398806 -4.732198 -7.016151
580 4 19 0.083833 -21.785998 3.027164 21.268859
581 4 19 0.150863 -17.332807 -4.874535 16.161165
582 4 19 0.132434 -21.272958 2.555766 13.318345
583 4 4 0.067445 -22.635157 2.326995 21.414435
584 4 19 0.152689 -16.865011 -5.369931 8.219431
585 4 8 -0.269897 -20.691027 -0.666552 22.282614
586 4 79 0.134825 -19.952154 -1.593825 21.095419
587 4 9 0.167970 -21.439035 0.296559 21.607115
588 4 59 -0.292737 -22.202444 1.25585 22.197257
589 4 8 -0.380321 -20.544155 -0.826648 19.731536
590 4 9 0.403282 -21.386149 0.195031 20.201129
591 4 19 0.134120 -23.454632 2.873413 21.931144
592 4 79 -0.178620 -20.819203 -0.410655 16.968079
593 4 8 0.282442 -20.24261 -1.175219 18.350823
594 4 4 -0.103402 -22.13498 1.87078 13.461914
595 4 4 -0.130086 -18.14585 -4.335709 16.678877
596 4 59 -0.150148 -22.062426 1.074045 19.426221