ITEM: TIMESTEP
3995000
ITEM: NUMBER OF ATOMS
64800
ITEM: BOX BOUNDS pp pp pp
-7.6243382159711118e+01 7.6243382159711118e+01
-4.9688359470340274e+01 4.9688359470340274e+01
-2.8437640089146928e+01 2.8437640089146928e+01
ITEM: ATOMS id mol type xu yu zu
1 1 5 -81.1747 -23.1775 -7.97807
2 1 5 -81.493 -22.0348 -8.71148
3 1 5 -81.8805 -24.3416 -8.04513
4 1 5 -82.9429 -24.3474 -8.97447
5 1 5 -83.2101 -23.2529 -9.75438
6 1 5 -82.5433 -22.0895 -9.59874
7 1 36 -83.8405 -25.377 -9.35965
8 1 43 -84.2053 -23.4929 -10.6388
9 1 9 -84.6286 -24.7177 -10.2875
10 1 5 -85.7813 -25.3701 -10.7945
11 1 1 -83.9825 -26.6636 -9.06493
12 1 49 -83.0558 -27.2497 -8.47777
13 1 5 -85.2133 -27.3695 -9.51398
14 1 5 -86.0922 -26.6616 -10.3767
15 1 5 -87.2795 -27.2673 -10.8325
16 1 5 -85.4347 -28.725 -9.36486
17 1 5 -86.5856 -29.3469 -9.85171
18 1 5 -87.543 -28.6241 -10.5587
19 1 5 -86.8108 -24.6165 -11.4925
20 1 5 -88.0251 -25.1952 -11.833
21 1 5 -88.2665 -26.5045 -11.4832
22 1 1 -88.8421 -29.2109 -10.961
23 1 8 -89.601 -27.077 -11.8559
24 1 36 -89.7834 -28.4042 -11.5078
25 1 49 -89.1169 -30.4032 -10.7571
26 1 44 -90.6754 -26.4166 -12.3969
27 1 24 -81.6275 -25.1864 -7.30364
28 1 24 -82.7449 -21.2438 -10.2209
29 1 24 -84.7058 -29.3489 -8.85223
30 1 24 -86.7865 -30.4107 -9.5874
31 1 24 -86.7121 -23.517 -11.6382
32 1 24 -88.8166 -24.6589 -12.2432
33 1 5 -91.0074 -28.6514 -12.1626
34 1 5 -91.4828 -27.4297 -12.6019
35 1 5 -91.7576 -29.828 -12.3821
36 1 5 -92.9582 -29.7647 -13.1307
37 1 5 -93.4328 -28.5144 -13.3508
38 1 5 -92.7272 -27.3193 -13.1393
39 1 36 -93.6952 -30.7048 -13.8537
40 1 43 -94.6101 -28.544 -14.038
41 1 9 -94.7694 -29.8742 -14.11
42 1 5 -95.8105 -30.5971 -14.8742
43 1 1 -93.4289 -31.992 -14.2204
44 1 49 -92.4218 -32.5396 -13.8526
45 1 5 -94.3558 -32.5799 -15.194
46 1 5 -95.514 -31.8564 -15.4567
47 1 5 -96.4791 -32.5385 -16.2479
48 1 5 -94.0671 -33.7986 -15.8256
49 1 5 -94.9893 -34.392 -16.6846
50 1 5 -96.2234 -33.7803 -16.8485
51 1 5 -97.0119 -29.9727 -15.148
52 1 5 -98.0014 -30.7017 -15.7461
53 1 5 -97.6604 -31.8499 -16.5212
54 1 1 -97.2481 -34.404 -17.7456
55 1 8 -98.6656 -32.529 -17.2855
56 1 36 -98.4416 -33.7868 -17.7015
57 1 49 -97.0113 -35.3391 -18.4419
58 1 38 -99.939 -32.2415 -17.3341
59 1 24 -91.3078 -30.8004 -12.1996
60 1 24 -93.0958 -26.4249 -13.557
61 1 24 -93.1512 -34.2825 -15.5513
62 1 24 -94.7354 -35.2904 -17.159
63 1 24 -97.2996 -29.0293 -14.7455
64 1 24 -98.9701 -30.2165 -15.704
65 1 5 -73.0731 -16.4404 -2.37711
66 1 5 -73.678 -17.6546 -2.45449
67 1 5 -73.2 -15.504 -3.34515
68 1 5 -74.6002 -17.8793 -3.47329
69 1 5 -74.1037 -15.6491 -4.38705
70 1 5 -74.7845 -16.8308 -4.40212
71 1 1 -75.495 -20.2774 -3.32553
72 1 49 -74.8331 -20.7325 -2.41054
73 1 5 -76.7322 -22.3632 -3.72198
74 1 5 -76.5062 -21.0473 -4.10016
75 1 8 -76.0537 -18.3902 -4.87978
76 1 36 -75.4129 -18.9826 -3.81682
77 1 5 -77.6453 -23.1427 -4.43604
78 1 5 -77.1177 -20.5892 -5.27981
79 1 5 -76.8888 -19.2614 -5.63257
80 1 44 -75.7304 -17.1494 -5.26821
81 1 5 -78.3498 -22.6807 -5.53431
82 1 5 -78.0354 -21.3751 -5.97474
83 1 5 -77.5107 -18.796 -6.78578
84 1 1 -79.452 -23.4726 -6.23663
85 1 5 -78.7154 -20.7744 -7.03122
86 1 24 -73.3897 -18.4938 -1.72756
87 1 5 -78.3941 -19.5799 -7.52969
88 1 8 -79.8424 -21.477 -7.56695
89 1 49 -79.7265 -24.6149 -5.90634
90 1 36 -80.0272 -22.8319 -7.27641
91 1 24 -74.318 -14.8837 -5.13916
92 1 24 -76.1692 -22.8924 -2.88874
93 1 44 -80.6559 -20.9754 -8.48078
94 1 24 -77.7443 -24.1974 -4.21688
95 1 24 -77.2751 -17.8107 -7.12307
96 1 24 -78.8847 -19.207 -8.42311
97 1 26 -99.1749 -34.2762 -18.2171
98 1 26 -100.364 -32.7239 -16.4858
99 1 49 -72.0408 -17.4184 0.337041
100 1 1 -71.4822 -16.4991 -0.318975
101 1 36 -71.9795 -16.0821 -1.54859
102 1 5 -69.5919 -16.1359 1.29596
103 1 5 -70.2896 -15.7138 0.141903
104 1 24 -69.994 -16.9053 1.99513
105 1 8 -71.5745 -14.9652 -2.21307
106 1 44 -72.2986 -14.5322 -3.27413
107 1 5 -68.4706 -15.5157 1.62569
108 1 5 -69.7585 -14.6154 -0.571398
109 1 5 -70.4299 -14.2123 -1.75056
110 1 24 -67.9596 -15.8679 2.47945
111 1 5 -67.9464 -14.475 0.887886
112 1 5 -68.5959 -13.9836 -0.214888
113 1 5 -69.8527 -13.1716 -2.55455
114 1 1 -66.6009 -13.8529 1.36356
115 1 49 -66.0759 -14.2916 2.33202
116 1 5 -68.0002 -13.0528 -1.02444
117 1 5 -68.5913 -12.588 -2.16467
118 1 24 -70.2995 -12.8325 -3.47421
119 1 8 -66.6828 -12.5884 -0.6754
120 1 36 -66.0876 -12.9645 0.513676
121 1 5 -64.8057 -12.4242 0.329477
122 1 5 -63.6558 -12.7899 1.05463
123 1 44 -65.9183 -11.9086 -1.56652
124 1 24 -68.0802 -11.8563 -2.70438
125 1 5 -64.7407 -11.9153 -0.917934
126 1 24 -63.602 -13.3499 2.03005
127 1 49 -61.4147 -13.3695 3.25663
128 1 5 -62.4611 -12.1908 0.666581
129 1 1 -60.7482 -12.7858 2.46285
130 1 5 -63.5163 -11.4531 -1.39523
131 1 5 -62.4096 -11.5725 -0.55739
132 1 36 -61.2328 -12.1217 1.3703
133 1 5 -58.637 -13.335 3.6917
134 1 5 -59.2637 -12.6583 2.6485
135 1 24 -59.2575 -13.88 4.37533
136 1 8 -60.5201 -11.4615 0.365875
137 1 5 -57.2814 -13.4163 3.82867
138 1 44 -61.1691 -11.0855 -0.769818
139 1 5 -58.4825 -12.0327 1.70832
140 1 24 -63.4837 -11.1681 -2.46281
141 1 5 -59.0721 -11.4333 0.583869
142 1 5 -56.4964 -12.8528 2.85932
143 1 24 -56.8196 -13.9141 4.72494
144 1 5 -57.1077 -12.2233 1.73501
145 1 5 -58.2847 -10.8617 -0.401221
146 1 1 -55.042 -12.9129 3.02043
147 1 49 -54.518 -13.2201 4.09438
148 1 5 -56.3287 -11.7748 0.661743
149 1 5 -56.9103 -11.0244 -0.371262
150 1 8 -54.8984 -11.963 0.726604
151 1 36 -54.3852 -12.3742 1.95769
152 1 24 -58.6411 -10.3037 -1.24125
153 1 5 -53.0361 -12.2209 1.68709
154 1 5 -51.9367 -12.4549 2.49987
155 1 44 -54.0555 -11.4617 -0.186856
156 1 5 -52.9508 -11.5692 0.419789
157 1 24 -56.3512 -10.6059 -1.2341
158 1 49 -49.5941 -12.8778 4.4282
159 1 24 -52.0489 -12.761 3.54113
160 1 5 -50.6708 -12.1299 1.89408
161 1 1 -48.8635 -12.6379 3.54128
162 1 5 -51.7089 -11.3479 -0.204753
163 1 5 -50.5572 -11.6846 0.559502
164 1 36 -49.3692 -12.2683 2.35764
165 1 5 -46.7812 -12.5506 4.96246
166 1 5 -47.3915 -12.5161 3.68637
167 1 8 -48.6204 -11.9879 1.21915
168 1 24 -47.4392 -12.8506 5.6725
169 1 44 -49.3015 -11.5293 0.17886
170 1 5 -45.4071 -12.3296 5.16558
171 1 5 -46.6141 -12.23 2.53276
172 1 24 -51.594 -11.004 -1.20864
173 1 5 -47.1978 -12.0025 1.27262
174 1 5 -44.683 -12.0626 4.02783
175 1 5 -45.2574 -12.097 2.71315
176 1 5 -46.371 -11.895 0.12931
177 1 24 -45.0353 -12.3727 6.23887
178 1 1 -43.2077 -11.8403 4.20912
179 1 5 -44.4229 -11.8476 1.62341
180 1 49 -42.5958 -11.998 5.23274
181 1 5 -45.0044 -11.7359 0.347507
182 1 24 -46.7425 -11.9306 -0.898964
183 1 8 -43.0223 -11.5914 1.75774
184 1 36 -42.614 -11.4082 3.08352
185 1 5 -41.2487 -11.0888 2.78412
186 1 44 -42.2129 -11.378 0.730871
187 1 5 -40.2089 -10.5848 3.60121
188 1 24 -44.4005 -11.5041 -0.527966
189 1 5 -41.0947 -11.2071 1.41671
190 1 24 -40.2371 -10.3213 4.66758
191 1 5 -39.0217 -10.2766 2.93657
192 1 5 -39.9288 -10.9665 0.767311
193 1 5 -38.9645 -10.3924 1.57315
194 1 24 -39.9703 -10.932 -0.357655
195 1 49 -37.9949 -9.41085 5.4971
196 1 1 -37.3423 -9.22868 4.49377
197 1 36 -37.7667 -9.68473 3.36209
198 1 8 -37.0981 -9.66674 2.12074
199 1 44 -37.8336 -10.0376 1.02486
200 1 5 -36.0969 -8.44367 4.37736
201 1 5 -35.5813 -7.76562 5.50303
202 1 5 -35.7212 -9.1505 2.08183
203 1 5 -35.2929 -8.52407 3.24038
204 1 5 -34.4332 -6.94987 5.41309
205 1 5 -34.9333 -9.2807 0.937573
206 1 24 -36.1014 -7.77707 6.41989
207 1 5 -34.0614 -7.87036 3.18223
208 1 5 -33.7117 -6.96787 4.24528
209 1 5 -33.6266 -8.77513 0.944402
210 1 5 -33.2314 -8.06273 2.07525
211 1 1 -32.422 -6.24429 4.17072
212 1 24 -34.1339 -6.45687 6.24173
213 1 49 -32.1767 -5.36497 4.97317
214 1 24 -35.325 -9.78014 0.0770708
215 1 8 -31.8805 -7.48545 2.07405
216 1 36 -31.5705 -6.60428 3.16344
217 1 5 -30.2879 -6.17408 2.71343
218 1 44 -30.8415 -7.83213 1.27641
219 1 5 -29.433 -5.1832 3.22157
220 1 5 -29.8731 -7.02309 1.67927
221 1 24 -32.9586 -8.87926 0.0990337
222 1 5 -28.1056 -5.24896 2.82234
223 1 49 -27.6262 -2.78333 4.503
224 1 5 -28.5528 -6.99376 1.16078
225 1 1 -26.7204 -3.42513 3.92637
226 1 5 -27.6954 -6.19033 1.87622
227 1 24 -29.7268 -4.57468 4.01054
228 1 36 -26.9611 -4.54093 3.2389
229 1 5 -25.0089 -1.84107 4.7358
230 1 5 -25.3291 -2.98557 3.94996
231 1 8 -25.9711 -5.17664 2.47571
232 1 44 -26.3622 -6.13331 1.62785
233 1 5 -23.7048 -1.32856 4.71963
234 1 5 -24.2748 -3.72437 3.39868
235 1 5 -24.5851 -4.84303 2.67687
236 1 24 -25.8335 -1.41008 5.21127
237 1 24 -28.3224 -7.69211 0.380157
238 1 5 -22.6425 -2.03772 4.16052
239 1 5 -22.9391 -3.25714 3.53272
240 1 5 -23.5445 -5.6324 2.11595
241 1 1 -21.1681 -1.4504 3.94507
242 1 5 -21.9273 -4.03965 2.97639
243 1 49 -20.9244 -0.26951 4.09735
244 1 5 -22.2384 -5.23021 2.31505
245 1 24 -23.4828 -0.253949 5.00547
246 1 8 -20.5532 -3.62459 3.04527
247 1 36 -20.2711 -2.35925 3.53005
248 1 5 -18.8691 -2.35028 3.38625
249 1 5 -17.9183 -1.38238 3.70102
250 1 24 -23.7874 -6.51061 1.50124
251 1 44 -19.5377 -4.43726 2.8151
252 1 5 -18.498 -3.58441 2.90654
253 1 5 -16.5653 -1.72756 3.46157
254 1 49 -16.1683 0.777264 4.74733
255 1 5 -17.1614 -3.90183 2.79234
256 1 1 -15.2625 0.134121 4.30843
257 1 24 -21.428 -5.85579 1.96608
258 1 5 -16.1769 -2.98665 3.05459
259 1 24 -18.1453 -0.380548 3.94841
260 1 36 -15.405 -1.04017 3.73961
261 1 5 -13.4924 1.92241 4.68242
262 1 5 -13.8164 0.566821 4.45604
263 1 8 -14.4437 -2.02989 3.42889
264 1 44 -14.8601 -3.20958 2.97292
265 1 5 -12.1587 2.35592 4.72408
266 1 5 -12.8293 -0.286888 4.13926
267 1 5 -13.0886 -1.60804 3.63763
268 1 24 -14.25 2.63526 4.94119
269 1 5 -11.2099 1.42673 4.44587
270 1 24 -16.8708 -4.96066 2.69944
271 1 5 -11.5159 0.0764113 4.15097
272 1 5 -12.0666 -2.50345 3.36443
273 1 1 -9.77767 1.95306 4.28124
274 1 5 -10.5026 -0.836686 3.88583
275 1 5 -10.7632 -2.12798 3.53821
276 1 24 -11.8782 3.42382 4.78204
277 1 49 -9.42233 3.0893 4.33579
278 1 8 -9.18525 -0.361164 3.82008
279 1 36 -8.90805 0.950955 3.99186
280 1 24 -12.25 -3.47297 2.87906
281 1 5 -7.55384 0.979923 3.46446
282 1 44 -8.18885 -1.1484 3.39735
283 1 5 -6.9239 2.0676 2.85165
284 1 5 -7.17779 -0.279417 3.25847
285 1 24 -10.0448 -2.80821 3.30221
286 1 5 -5.88994 -0.562885 2.72411
287 1 5 -5.69142 1.78041 2.2389
288 1 49 -5.98583 4.07044 0.446371
289 1 24 -7.28204 3.09806 2.9273
290 1 5 -5.17554 0.507117 2.1983
291 1 1 -4.89141 3.6716 0.663633
292 1 36 -4.7698 2.60462 1.56154
293 1 8 -3.66692 1.75877 1.51331
294 1 44 -3.8992 0.472768 1.7786
295 1 5 -3.60483 4.18643 0.0628457
296 1 24 -5.58795 -1.654 2.62052
297 1 5 -3.63162 5.31991 -0.712482
298 1 5 -2.42643 2.33211 1.01667
299 1 5 -2.39669 3.53267 0.30059
300 1 24 -4.59582 5.69923 -0.971205
301 1 5 -2.4446 5.87932 -1.12347
302 1 5 -1.19455 1.73289 1.3065
303 1 5 -1.16031 4.06648 -0.0923803
304 1 5 -1.22875 5.30958 -0.776993
305 1 5 0.0222872 2.18763 0.755958
306 1 5 0.0433317 3.41139 0.196915
307 1 24 -1.07402 0.799911 1.85493
308 1 24 -2.44213 6.65164 -1.89555
309 1 1 0.0306122 5.96657 -1.09701
310 1 49 0.0270936 7.1419 -1.4688
311 1 8 1.27483 4.00509 -0.201767
312 1 36 1.14738 5.27606 -0.750478
313 1 24 0.855448 1.54003 0.914256
314 1 44 2.5462 3.57645 0.119327
315 1 5 2.51362 5.59743 -0.97465
316 1 5 3.26867 4.61412 -0.441369
317 1 5 3.11886 6.67111 -1.59776
318 1 5 4.65562 4.66051 -0.412181
319 1 24 2.54979 7.44518 -2.04008
320 1 5 4.52949 6.75822 -1.6317
321 1 5 5.30883 5.72184 -1.02407
322 1 24 5.17937 3.86494 0.0526831
323 1 24 4.99616 7.54449 -2.10192
324 1 24 6.38197 5.76448 -1.09478
325 2 5 51.1722 -0.980146 21.3729
326 2 5 52.3358 -0.760101 20.7723
327 2 5 50.3108 -2.08707 21.0959
328 2 5 50.819 -3.0495 20.2628
329 2 5 52.0818 -2.87739 19.6906
330 2 5 52.8114 -1.74074 19.9105
331 2 36 50.2063 -4.16747 19.8242
332 2 43 52.2511 -3.76291 18.7334
333 2 9 51.1216 -4.54144 18.8064
334 2 5 50.8087 -5.74843 18.1097
335 2 1 49.1002 -4.76406 20.2276
336 2 49 48.3924 -4.3485 21.181
337 2 5 48.841 -6.05775 19.4434
338 2 5 49.6846 -6.47493 18.4064
339 2 5 49.3817 -7.65222 17.7785
340 2 5 47.7347 -6.78101 19.825
341 2 5 47.3036 -7.88887 19.0852
342 2 5 48.1637 -8.34304 18.0682
343 2 5 51.7528 -6.29712 17.1797
344 2 5 51.4843 -7.50696 16.5901
345 2 5 50.2887 -8.13643 16.8253
346 2 1 47.7202 -9.50709 17.2353
347 2 8 49.9965 -9.39728 16.2041
348 2 36 48.6889 -9.83019 16.3364
349 2 49 46.6651 -10.1079 17.3521
350 2 44 50.8305 -10.1598 15.5117
351 2 24 49.3428 -2.20346 21.527
352 2 24 53.7013 -1.51169 19.3736
353 2 24 47.2117 -6.3952 20.7063
354 2 24 46.32 -8.36679 19.3745
355 2 24 52.6602 -5.72726 17.069
356 2 24 52.2293 -7.93698 15.9193
357 2 5 48.7081 -10.931 15.503
358 2 5 49.9929 -11.0842 15.0304
359 2 5 47.6441 -11.5548 14.9477
360 2 5 47.9081 -12.5183 13.9889
361 2 5 49.212 -12.8277 13.638
362 2 5 50.2909 -12.0874 14.1365
363 2 36 47.0654 -13.3976 13.3569
364 2 43 49.2728 -13.9558 12.9188
365 2 9 47.9708 -14.2764 12.7848
366 2 5 47.3387 -15.4324 12.1338
367 2 1 45.7473 -13.4178 13.3044
368 2 49 44.9721 -12.6705 13.9411
369 2 5 45.1391 -14.4252 12.4181
370 2 5 45.9643 -15.4362 11.8407
371 2 5 45.3865 -16.4241 11.0408
372 2 5 43.7683 -14.3981 12.0834
373 2 5 43.2265 -15.4324 11.3815
374 2 5 43.9935 -16.5017 10.9141
375 2 5 48.1426 -16.4912 11.6193
376 2 5 47.5639 -17.436 10.8136
377 2 5 46.2064 -17.4107 10.5024
378 2 1 43.3898 -17.6689 10.1945
379 2 8 45.6007 -18.4761 9.71035
380 2 36 44.2292 -18.5008 9.5544
381 2 49 42.2021 -17.7083 10.0108
382 2 38 46.1165 -19.5514 9.19633
383 2 24 46.6814 -11.415 15.3367
384 2 24 51.2786 -12.3135 13.8308
385 2 24 43.2109 -13.5386 12.5261
386 2 24 42.1705 -15.3947 11.2885
387 2 24 49.1822 -16.4935 11.8093
388 2 24 48.2505 -18.2342 10.5408
389 2 5 49.3616 10.521 23.6472
390 2 5 48.9874 9.32625 23.1345
391 2 5 50.6771 10.8176 23.9809
392 2 5 49.9665 8.36276 23.0567
393 2 5 51.6376 9.80549 23.9935
394 2 5 51.2161 8.57694 23.5587
395 2 1 48.7143 6.22855 22.556
396 2 49 47.5805 6.72847 22.4707
397 2 5 47.8374 3.97438 22.3132
398 2 5 48.9517 4.75417 22.4466
399 2 8 51.1218 6.54662 22.8989
400 2 36 49.8533 6.95697 22.6565
401 2 5 48.0334 2.59699 22.3706
402 2 5 50.2729 4.28185 22.4808
403 2 5 51.3497 5.18168 22.6473
404 2 44 51.9911 7.53511 23.3666
405 2 5 49.3438 2.05903 22.2844
406 2 5 50.4173 2.90739 22.255
407 2 5 52.5552 4.64526 22.5123
408 2 1 49.5737 0.568724 22.365
409 2 5 51.7336 2.39369 22.05
410 2 24 47.959 9.13995 22.8063
411 2 5 52.8136 3.23012 22.2141
412 2 8 51.8464 1.01225 21.737
413 2 49 48.7705 -0.235418 22.686
414 2 36 50.8126 0.206149 22.0011
415 2 24 52.6245 9.96552 24.4942
416 2 24 46.7635 4.2943 22.2639
417 2 44 52.8193 0.452826 20.9187
418 2 24 47.2131 1.83193 22.3939
419 2 24 53.404 5.26378 22.6581
420 2 24 53.8324 2.86124 22.0705
421 2 26 43.8354 -19.3368 9.11457
422 2 26 45.7783 -20.382 9.73143
423 2 49 46.5659 11.1298 22.9593
424 2 1 47.2206 11.8393 23.7161
425 2 36 48.5129 11.5736 23.985
426 2 5 45.335 13.2664 24.4229
427 2 5 46.7035 13.0162 24.4597
428 2 24 44.5865 12.6125 23.9029
429 2 8 49.4545 12.4149 24.5777
430 2 44 50.7223 12.0203 24.5284
431 2 5 44.8339 14.3198 25.1359
432 2 5 47.5652 13.8425 25.2187
433 2 5 48.9337 13.5795 25.2547
434 2 24 43.7911 14.389 25.2264
435 2 5 45.6915 15.2604 25.6814
436 2 5 47.0161 14.9574 25.8107
437 2 5 49.8015 14.3823 26.0544
438 2 1 45.1762 16.4179 26.4294
439 2 49 43.9629 16.6345 26.4062
440 2 5 47.8636 15.862 26.5199
441 2 5 49.2533 15.5212 26.6545
442 2 24 50.8357 14.2132 26.2406
443 2 8 47.3764 17.06 27.1068
444 2 36 46.0198 17.2515 27.0053
445 2 5 45.8979 18.4511 27.752
446 2 5 44.8525 19.3205 27.7202
447 2 44 48.0504 17.8352 27.9262
448 2 24 49.8657 16.1739 27.2957
449 2 5 47.1514 18.8119 28.1519
450 2 24 43.9114 19.0469 27.2838
451 2 49 42.0448 20.9727 27.9022
452 2 5 45.0299 20.5973 28.2341
453 2 1 42.7815 21.8983 28.1957
454 2 5 47.3697 20.0915 28.6505
455 2 5 46.2893 20.9542 28.6215
456 2 36 44.1211 21.6834 28.374
457 2 5 40.9878 23.6855 28.2145
458 2 5 42.3194 23.3334 28.3053
459 2 24 40.2511 22.9609 28.1518
460 2 8 45.083 22.628 28.7977
461 2 5 40.5891 25.0058 28.3489
462 2 44 46.4014 22.2872 28.9522
463 2 5 43.2681 24.3051 28.602
464 2 24 48.3029 20.4679 28.9535
465 2 5 44.608 23.9857 28.7568
466 2 5 41.5218 26.0371 28.4625
467 2 24 39.5559 25.2479 28.0359
468 2 5 42.8687 25.7223 28.5796
469 2 5 45.56 25.0349 28.9552
470 2 1 41.0892 27.4322 28.4172
471 2 49 39.9294 27.696 28.1601
472 2 5 43.8472 26.7367 28.7958
473 2 5 45.166 26.3897 28.9868
474 2 8 43.3516 28.0718 28.7359
475 2 36 42.0123 28.3485 28.7174
476 2 24 46.5409 24.7521 29.0522
477 2 5 42.0303 29.7205 28.6131
478 2 5 41.0449 30.5885 28.1844
479 2 44 44.2482 29.1131 28.7754
480 2 5 43.347 30.0941 28.6901
481 2 24 45.8887 27.1522 29.2754
482 2 49 38.6937 32.3973 27.8807
483 2 24 39.9554 30.2524 28.156
484 2 5 41.4492 31.9174 27.8068
485 2 1 39.49 33.2656 27.5785
486 2 5 43.775 31.3824 28.232
487 2 5 42.7537 32.2688 27.823
488 2 36 40.7416 32.9839 27.2458
489 2 5 37.9946 35.1512 28.1532
490 2 5 39.2323 34.7233 27.5762
491 2 8 41.8078 33.8358 26.8614
492 2 24 37.2871 34.4616 28.5654
493 2 44 43.0405 33.4651 27.3406
494 2 5 37.7081 36.5189 28.0131
495 2 5 40.0942 35.6045 26.9555
496 2 24 44.8105 31.7321 28.2285
497 2 5 41.3812 35.1776 26.5356
498 2 5 38.5763 37.4171 27.3978
499 2 5 39.7877 36.9419 26.8696
500 2 5 42.2784 36.0889 25.9302
501 2 24 36.7016 36.8991 28.146
502 2 1 38.1205 38.8029 27.0739
503 2 5 40.6594 37.8423 26.2149
504 2 49 37.0252 39.2187 27.3294
505 2 5 41.9091 37.4301 25.736
506 2 24 43.3045 35.7464 25.7595
507 2 8 40.3372 39.2107 26.2341
508 2 36 39.0586 39.5394 26.4872
509 2 5 39.0941 40.8578 26.0933
510 2 44 41.1814 40.2262 26.0437
511 2 5 37.9899 41.6736 25.8772
512 2 24 42.6247 38.1553 25.3036
513 2 5 40.3577 41.2697 25.9582
514 2 24 36.949 41.2826 25.9298
515 2 5 38.2525 43.0194 25.7068
516 2 5 40.6561 42.5928 25.6508
517 2 5 39.5564 43.4552 25.4754
518 2 24 41.6408 42.9905 25.6433
519 2 49 35.2336 43.2279 25.8976
520 2 1 36.0106 44.1861 25.658
521 2 36 37.3501 44.094 25.6648
522 2 8 38.2553 45.1319 25.4522
523 2 44 39.5626 44.7638 25.3467
524 2 5 35.4483 45.5933 25.4957
525 2 5 34.0709 45.7735 25.5885
526 2 5 37.7256 46.457 25.3338
527 2 5 36.3472 46.6916 25.3363
528 2 5 33.5743 47.0121 25.2989
529 2 5 38.5619 47.5957 25.2031
530 2 24 33.4515 44.915 25.6957
531 2 5 35.8058 47.9815 25.2129
532 2 5 34.4284 48.1347 25.2069
533 2 5 38.0368 48.8534 25.0517
534 2 5 36.6859 49.0598 25.1012
535 2 1 33.8191 49.5398 25.0824
536 2 24 32.4855 47.0922 25.3465
537 2 49 32.6736 49.7957 25.315
538 2 24 39.6635 47.4647 25.2591
539 2 8 36.1206 50.4114 24.957
540 2 36 34.7428 50.4971 24.8607
541 2 5 34.5338 51.8574 24.7501
542 2 44 36.7621 51.5998 24.8484
543 2 5 33.3599 52.515 24.3941
544 2 5 35.7478 52.5317 24.8084
545 2 24 38.6446 49.7182 24.9601
546 2 5 33.4124 53.9406 24.4049
547 2 49 30.406 53.7238 23.9926
548 2 5 35.7543 53.9112 24.8552
549 2 1 30.9484 54.7645 24.2654
550 2 5 34.5729 54.6064 24.6794
551 2 24 32.3901 52.0469 24.1504
552 2 36 32.3159 54.8712 24.3545
553 2 5 28.8007 55.916 24.5041
554 2 5 30.1683 55.9396 24.598
555 2 8 33.0158 55.9993 24.7602
556 2 44 34.357 55.9102 24.9049
557 2 5 28.0416 57.0085 24.8219
558 2 5 30.8376 57.1273 25.0076
559 2 5 32.2668 57.181 25.1024
560 2 24 28.3373 54.9756 24.2021
561 2 24 36.6955 54.4268 24.9736
562 2 5 28.6111 58.1843 25.1978
563 2 5 30.0307 58.2383 25.3804
564 2 5 32.8299 58.3747 25.5707
565 2 1 27.7945 59.3238 25.7515
566 2 5 30.6335 59.4272 25.7389
567 2 49 26.6018 59.2666 25.9029
568 2 5 32.0031 59.4593 25.9906
569 2 24 26.9287 56.9765 24.7014
570 2 8 29.903 60.5916 26.0568
571 2 36 28.5131 60.4188 26.1162
572 2 5 28.1444 61.7989 26.4748
573 2 5 26.8961 62.2769 26.8058
574 2 24 33.8939 58.6015 25.5425
575 2 44 30.3983 61.9019 26.1103
576 2 5 29.3057 62.6237 26.4262
577 2 5 26.9733 63.6495 27.2417
578 2 49 24.0383 63.0622 28.0352
579 2 5 29.2843 63.955 26.7571
580 2 1 24.6442 64.1158 28.3161
581 2 24 32.4539 60.3705 26.1803
582 2 5 28.082 64.4805 27.2538
583 2 24 26.0369 61.6949 27.0238
584 2 36 25.9677 64.3657 27.9983
585 2 5 22.7248 64.9736 29.6687
586 2 5 23.9873 65.1568 29.098
587 2 8 26.5829 65.6347 28.0345
588 2 44 27.8855 65.7155 27.7291
589 2 5 22.0574 65.9586 30.3987
590 2 5 24.5252 66.4484 29.1657
591 2 5 25.7592 66.6954 28.5649
592 2 24 22.2803 63.9822 29.6635
593 2 5 22.6701 67.2235 30.5671
594 2 24 30.2295 64.5277 26.8208
595 2 5 23.9279 67.4298 29.9675
596 2 5 26.2851 67.9884 28.5862
597 2 1 21.9582 68.2657 31.4121
598 2 5 24.5425 68.6716 30.0807
599 2 5 25.7194 68.9361 29.3701
600 2 24 21.1174 65.7817 30.881
601 2 49 20.802 68.0992 31.7558
602 2 8 23.9154 69.6513 30.8779
603 2 36 22.7108 69.394 31.5334
604 2 24 27.2722 68.1792 28.1922
605 2 5 22.4244 70.6334 32.2254
606 2 44 24.4234 70.8701 31.1198
607 2 5 21.2286 71.0742 32.836
608 2 5 23.5204 71.4495 31.9472
609 2 24 26.215 69.8859 29.3713
610 2 5 23.5281 72.8019 32.4283
611 2 5 21.3069 72.3815 33.3044
612 2 49 18.7634 71.5123 34.4873
613 2 24 20.3774 70.4267 33.1404
614 2 5 22.4139 73.1975 33.1478
615 2 1 19.1383 72.674 34.4946
616 2 36 20.3302 73.0599 34.0052
617 2 8 20.9115 74.3209 34.1239
618 2 44 22.1926 74.4304 33.6258
619 2 5 18.269 73.772 35.0827
620 2 24 24.2287 73.5298 32.1058
621 2 5 16.8757 73.6059 35.2634
622 2 5 20.1373 75.3652 34.7439
623 2 5 18.8008 75.1022 35.1466
624 2 24 16.3441 72.6614 35.0834
625 2 5 16.1318 74.6016 35.9586
626 2 5 20.6976 76.6568 34.815
627 2 5 18.054 76.1065 35.7958
628 2 5 16.7139 75.8613 36.161
629 2 5 19.9391 77.617 35.4998
630 2 5 18.6045 77.3638 35.9593
631 2 24 21.6643 76.8772 34.3813
632 2 24 15.1644 74.3662 36.3262
633 2 1 15.8897 77.005 36.6598
634 2 49 14.7284 76.9547 36.9689
635 2 8 17.914 78.3635 36.6554
636 2 36 16.5975 78.1242 36.9808
637 2 24 20.3682 78.6428 35.6634
638 2 44 18.3303 79.632 36.8961
639 2 5 16.1159 79.4059 37.4878
640 2 5 17.2401 80.2418 37.4501
641 2 5 14.8297 79.9058 37.6987
642 2 5 17.0634 81.5607 37.6521
643 2 24 13.8986 79.3585 37.4678
644 2 5 14.7187 81.2607 37.7999
645 2 5 15.7986 82.1405 37.8379
646 2 24 17.9382 82.2275 37.6087
647 2 24 13.6791 81.7315 37.8563
648 2 24 15.7154 83.2461 37.8394
649 3 5 -22.562 38.026 25.0217
650 3 5 -22.3591 38.9195 23.9754
651 3 5 -23.1206 38.4368 26.25
652 3 5 -23.5439 39.7729 26.3279
653 3 5 -23.3036 40.6885 25.3478
654 3 5 -22.7131 40.294 24.1043
655 3 36 -24.3257 40.4065 27.3542
656 3 43 -23.8451 41.9002 25.5921
657 3 9 -24.4978 41.6803 26.7961
658 3 5 -25.3419 42.6548 27.4767
659 3 1 -24.6762 40.0711 28.6277
660 3 49 -24.3042 39.0241 29.1453
661 3 5 -25.6594 41.0491 29.2919
662 3 5 -25.9184 42.3 28.6937
663 3 5 -26.8742 43.1526 29.2938
664 3 5 -26.3506 40.6135 30.3505
665 3 5 -27.1479 41.5252 31.0654
666 3 5 -27.4398 42.7914 30.5284
667 3 5 -25.7944 43.8155 26.8037
668 3 5 -26.7999 44.6114 27.3134
669 3 5 -27.3006 44.3134 28.6268
670 3 1 -28.5718 43.5684 31.1049
671 3 8 -28.2009 45.1631 29.31
672 3 36 -28.9249 44.6725 30.3997
673 3 49 -29.1944 43.3362 32.0941
674 3 44 -28.6283 46.3215 28.7948
675 3 24 -23.2387 37.7671 27.039
676 3 24 -22.6251 41.0317 23.3464
677 3 24 -26.2761 39.6555 30.6566
678 3 24 -27.6651 41.1832 31.8693
679 3 24 -25.4117 44.0301 25.8011
680 3 24 -27.1231 45.4405 26.7285
681 3 5 -29.8368 45.686 30.6982
682 3 5 -29.6907 46.6107 29.6521
683 3 5 -30.9028 45.7817 31.6266
684 3 5 -31.6949 46.9124 31.4956
685 3 5 -31.5396 47.8681 30.5313
686 3 5 -30.5865 47.6607 29.5186
687 3 36 -32.8418 47.2226 32.1981
688 3 43 -32.5221 48.7816 30.4987
689 3 9 -33.3015 48.3688 31.5316
690 3 5 -34.6386 48.8832 31.8621
691 3 1 -33.5777 46.5502 33.1328
692 3 49 -33.1799 45.5216 33.6142
693 3 5 -34.9148 47.1166 33.4863
694 3 5 -35.4203 48.2434 32.8366
695 3 5 -36.7349 48.6536 33.0901
696 3 5 -35.6167 46.5074 34.5684
697 3 5 -36.9544 46.9259 34.8434
698 3 5 -37.4857 47.9559 34.0493
699 3 5 -35.1661 50.0457 31.2285
700 3 5 -36.4488 50.5127 31.5191
701 3 5 -37.2148 49.7968 32.4157
702 3 1 -38.8468 48.4816 34.4293
703 3 8 -38.5725 50.1749 32.7127
704 3 36 -39.2835 49.5348 33.6973
705 3 49 -39.5974 47.9381 35.2642
706 3 38 -39.2472 51.1 32.0787
707 3 24 -31.0286 45.0319 32.3605
708 3 24 -30.5281 48.2738 28.618
709 3 24 -35.1272 45.685 35.1243
710 3 24 -37.4454 46.5897 35.6882
711 3 24 -34.7082 50.6348 30.4935
712 3 24 -36.728 51.431 30.8888
713 3 5 -16.3671 29.9011 19.0662
714 3 5 -17.3279 30.0883 19.9994
715 3 5 -16.234 30.7936 17.9863
716 3 5 -18.2041 31.1809 19.7902
717 3 5 -17.0256 31.916 17.8235
718 3 5 -17.9511 32.1621 18.7839
719 3 1 -19.3656 31.4758 21.9448
720 3 49 -19.1098 30.4006 22.4194
721 3 5 -20.8074 32.1501 23.9338
722 3 5 -20.2173 32.4536 22.673
723 3 8 -19.2733 33.0083 20.0671
724 3 36 -19.1091 31.7937 20.6635
725 3 5 -21.4894 33.157 24.688
726 3 5 -20.4538 33.7251 22.1136
727 3 5 -20.0541 34.031 20.7804
728 3 44 -18.6538 33.2962 18.896
729 3 5 -21.5476 34.4815 24.2384
730 3 5 -21.0546 34.7233 22.9327
731 3 5 -20.1229 35.3548 20.3354
732 3 1 -22.2289 35.5026 25.0355
733 3 5 -21.1953 36.0112 22.3537
734 3 24 -17.2566 29.5477 20.8657
735 3 5 -20.6411 36.3756 21.1067
736 3 8 -21.7751 37.0238 23.2084
737 3 49 -22.763 35.2278 26.0713
738 3 36 -22.2395 36.7322 24.4889
739 3 24 -16.7783 32.6902 17.0664
740 3 24 -20.7305 31.1315 24.3404
741 3 44 -21.8506 38.315 22.9217
742 3 24 -22.0546 32.9492 25.4927
743 3 24 -19.7673 35.5536 19.372
744 3 24 -20.8409 37.3673 20.6285
745 3 26 -40.233 49.8644 33.8403
746 3 26 -39.1417 50.9589 31.0293
747 3 49 -15.2542 27.6782 20.7919
748 3 1 -14.6041 28.1391 19.8724
749 3 36 -15.1041 29.1776 19.1076
750 3 5 -12.7315 26.559 20.1377
751 3 5 -13.2647 27.6725 19.5044
752 3 24 -13.2809 26.0304 20.9419
753 3 8 -14.5233 29.6829 17.9596
754 3 44 -15.1494 30.6767 17.3199
755 3 5 -11.434 26.1781 19.8798
756 3 5 -12.5115 28.3644 18.5091
757 3 5 -13.1275 29.3446 17.7476
758 3 24 -10.8838 25.3967 20.428
759 3 5 -10.6125 26.8822 18.9214
760 3 5 -11.2012 27.9305 18.2108
761 3 5 -12.4115 29.9257 16.7311
762 3 1 -9.14872 26.5627 18.6994
763 3 49 -8.48926 25.6871 19.3214
764 3 5 -10.4865 28.6542 17.2827
765 3 5 -11.1034 29.6268 16.4831
766 3 24 -12.9371 30.6279 16.0588
767 3 8 -9.10534 28.3923 17.0901
768 3 36 -8.51863 27.2957 17.7574
769 3 5 -7.2307 27.3151 17.2647
770 3 5 -6.19056 26.4666 17.4917
771 3 44 -8.31278 29.0806 16.3109
772 3 24 -10.5923 30.0891 15.6523
773 3 5 -7.19925 28.3852 16.4262
774 3 24 -6.25873 25.6656 18.1901
775 3 49 -3.84813 24.6115 18.5084
776 3 5 -4.97795 26.9063 16.9369
777 3 1 -3.18854 25.3319 17.8001
778 3 5 -6.07177 28.7169 15.714
779 3 5 -4.9012 27.9517 16.0177
780 3 36 -3.71448 26.3763 17.0626
781 3 5 -1.1226 24.0017 18.044
782 3 5 -1.69126 25.0968 17.5061
783 3 24 -1.81404 23.3051 18.6089
784 3 8 -3.01621 27.2871 16.3195
785 3 5 0.249487 23.786 17.9873
786 3 44 -3.6539 28.271 15.664
787 3 5 -0.96134 26.0176 16.7912
788 3 24 -6.05136 29.517 15.0393
789 3 5 -1.62212 27.1264 16.1666
790 3 5 1.04709 24.7198 17.2221
791 3 24 0.708918 22.924 18.5168
792 3 5 0.415628 25.8283 16.631
793 3 5 -0.870397 28.0769 15.5261
794 3 1 2.5191 24.6042 17.0207
795 3 49 3.16493 23.895 17.7204
796 3 5 1.10444 26.7402 15.8106
797 3 5 0.494924 27.9084 15.3661
798 3 8 2.55706 26.5457 15.5651
799 3 36 3.09168 25.4761 16.1535
800 3 24 -1.25407 29.0091 15.0257
801 3 5 4.47103 25.6161 15.8259
802 3 5 5.57281 24.8234 16.1412
803 3 44 3.39861 27.3755 14.901
804 3 5 4.56628 26.7622 15.1208
805 3 24 1.0766 28.7033 14.7668
806 3 49 7.83158 23.1674 17.2331
807 3 24 5.41945 23.9296 16.7442
808 3 5 6.78543 25.2859 15.646
809 3 1 8.54825 23.745 16.448
810 3 5 5.81077 27.2013 14.6517
811 3 5 6.91605 26.4189 14.8948
812 3 36 8.05832 24.7565 15.7094
813 3 5 10.5845 22.373 16.9955
814 3 5 10.041 23.5071 16.3507
815 3 8 8.79922 25.7535 15.0798
816 3 24 10.037 21.7035 17.5734
817 3 44 8.09579 26.7414 14.5478
818 3 5 12.0085 22.284 16.9876
819 3 5 10.8554 24.4618 15.7788
820 3 24 5.89203 28.1122 14.136
821 3 5 10.2438 25.5333 15.0915
822 3 5 12.7914 23.2035 16.378
823 3 5 12.2505 24.3002 15.7365
824 3 5 11.066 26.3095 14.3116
825 3 24 12.5093 21.355 17.3858
826 3 1 14.3124 23.0252 16.3719
827 3 5 13.0065 25.176 14.9873
828 3 49 14.8029 21.9918 16.7401
829 3 5 12.4118 26.2358 14.3075
830 3 24 10.6607 27.1399 13.7408
831 3 8 14.4425 25.0913 15.0694
832 3 36 14.9801 24.0373 15.8601
833 3 5 16.3589 24.3275 15.7763
834 3 44 15.3094 25.9587 14.4955
835 3 5 17.476 23.6143 16.2683
836 3 24 13.0071 26.9455 13.7015
837 3 5 16.4832 25.4235 14.9083
838 3 24 17.392 22.9327 17.0313
839 3 5 18.7295 24.1141 15.8893
840 3 5 17.7249 25.9559 14.597
841 3 5 18.8434 25.3059 15.0957
842 3 24 17.8028 26.7975 13.9001
843 3 49 19.6533 21.8849 17.4238
844 3 1 20.4481 22.7008 16.9964
845 3 36 20.0414 23.7324 16.1961
846 3 8 20.8357 24.7311 15.5845
847 3 44 20.1385 25.6375 14.8449
848 3 5 21.9666 22.6729 17.2347
849 3 5 22.4733 21.6214 18.0393
850 3 5 22.2542 24.6918 15.8308
851 3 5 22.8027 23.6717 16.7114
852 3 5 23.8368 21.6348 18.3376
853 3 5 23.1109 25.6487 15.2432
854 3 24 21.7971 20.8423 18.2962
855 3 5 24.1272 23.6628 16.9691
856 3 5 24.6882 22.6732 17.8588
857 3 5 24.4279 25.5749 15.4762
858 3 5 24.9777 24.6582 16.3705
859 3 1 26.1409 22.6297 18.0745
860 3 24 24.26 20.8187 19.0059
861 3 49 26.7985 21.6973 18.4976
862 3 24 22.7045 26.4312 14.6168
863 3 8 26.3589 24.7235 16.7382
864 3 36 26.8284 23.7537 17.588
865 3 5 28.1927 24.0714 17.6825
866 3 44 27.2613 25.602 16.3152
867 3 5 29.2408 23.3974 18.3173
868 3 5 28.3574 25.1399 16.8961
869 3 24 25.1192 26.3822 15.15
870 3 5 30.4329 24.0448 18.2038
871 3 49 31.353 21.8357 19.7258
872 3 5 29.5771 25.8402 16.8595
873 3 1 32.1555 22.6737 19.3949
874 3 5 30.6137 25.1961 17.4699
875 3 24 29.0717 22.5053 18.8839
876 3 36 31.7752 23.6574 18.5752
877 3 5 34.2057 21.6855 20.3104
878 3 5 33.6208 22.7452 19.6605
879 3 8 32.5079 24.7487 18.0942
880 3 44 31.8426 25.7226 17.4328
881 3 5 35.6002 21.6441 20.4541
882 3 5 34.5075 23.7011 19.0941
883 3 5 33.8816 24.7327 18.3006
884 3 24 33.5932 20.8455 20.7307
885 3 24 29.7676 26.736 16.3147
886 3 5 36.4456 22.7212 20.002
887 3 5 35.8531 23.7023 19.2269
888 3 5 34.6869 25.7276 17.7548
889 3 1 37.9399 22.6626 20.1908
890 3 5 36.6502 24.7117 18.6738
891 3 49 38.5176 21.7969 20.8599
892 3 5 36.0965 25.6954 17.9311
893 3 24 36.0953 20.8599 20.9061
894 3 8 38.0799 24.6718 18.8292
895 3 36 38.6233 23.6229 19.6154
896 3 5 40.0239 23.9947 19.5679
897 3 5 41.155 23.4415 20.1609
898 3 24 34.3116 26.6576 17.3574